38
# ORCA AIMD Force Step 0, t=0.00 fs, E_Pot=-772.18552152 Hartree, Unit is Hartree/Angstrom
 C      0.0000000000      0.0000000000      0.0000000000
 C      0.0000000000      0.0000000000      0.0000000000
 C      0.0000000000      0.0000000000      0.0000000000
 C      0.0000000000      0.0000000000      0.0000000000
 C      0.0000000000      0.0000000000      0.0000000000
 C      0.0000000000      0.0000000000      0.0000000000
 C      0.0000000000      0.0000000000      0.0000000000
 C      0.0000000000      0.0000000000      0.0000000000
 C      0.0000000000      0.0000000000      0.0000000000
 C      0.0000000000      0.0000000000      0.0000000000
 C      0.0000000000      0.0000000000      0.0000000000
 C      0.0000000000      0.0000000000      0.0000000000
 C      0.0000000000      0.0000000000      0.0000000000
 C      0.0000000000      0.0000000000      0.0000000000
 C      0.0000000000      0.0000000000      0.0000000000
 C      0.0000000000      0.0000000000      0.0000000000
 C      0.0000000000      0.0000000000      0.0000000000
 C      0.0000000000      0.0000000000      0.0000000000
 C      0.0000000000      0.0000000000      0.0000000000
 C      0.0000000000      0.0000000000      0.0000000000
 H      0.0000000000      0.0000000000      0.0000000000
 H      0.0000000000      0.0000000000      0.0000000000
 H      0.0000000000      0.0000000000      0.0000000000
 H      0.0000000000      0.0000000000      0.0000000000
 H      0.0000000000      0.0000000000      0.0000000000
 H      0.0000000000      0.0000000000      0.0000000000
 H      0.0000000000      0.0000000000      0.0000000000
 H      0.0000000000      0.0000000000      0.0000000000
 H      0.0000000000      0.0000000000      0.0000000000
 H      0.0000000000      0.0000000000      0.0000000000
 H      0.0000000000      0.0000000000      0.0000000000
 H      0.0000000000      0.0000000000      0.0000000000
 H      0.0000000000      0.0000000000      0.0000000000
 H      0.0000000000      0.0000000000      0.0000000000
 H      0.0000000000      0.0000000000      0.0000000000
 H      0.0000000000      0.0000000000      0.0000000000
 H      0.0000000000      0.0000000000      0.0000000000
 H      0.0000000000      0.0000000000      0.0000000000
38
# ORCA AIMD Force Step 1, t=0.50 fs, E_Pot=-772.18292621 Hartree, Unit is Hartree/Angstrom
 C     -0.0088101243      0.0018024615     -0.0049021086
 C      0.0049814782     -0.0176989841      0.0025822290
 C     -0.0054712355      0.0051764585     -0.0023451944
 C     -0.0026184389      0.0111358567      0.0001591000
 C      0.0050070881     -0.0048566526      0.0060412023
 C     -0.0007917710      0.0046298123      0.0016541911
 C     -0.0092481357      0.0093821785     -0.0000288696
 C      0.0064268379     -0.0014974701      0.0131449562
 C     -0.0021128318     -0.0003756256     -0.0013598384
 C      0.0032970292      0.0037806016      0.0019536462
 C     -0.0117798553      0.0033625106      0.0166543674
 C     -0.0041926528      0.0045167416      0.0024934803
 C     -0.0085763440      0.0048058846      0.0036155972
 C      0.0018272172      0.0010296172      0.0109197042
 C      0.0056141580     -0.0019306868     -0.0263979323
 C     -0.0072871896      0.0130090590      0.0176021530
 C      0.0176686792     -0.0018807298     -0.0035878315
 C     -0.0142656896     -0.0062875441      0.0239067039
 C     -0.0037043059     -0.0188371940     -0.0169775520
 C     -0.0001820567     -0.0038663458     -0.0021006137
 H      0.0158358633     -0.0067106375      0.0143834213
 H      0.0028071860     -0.0044678547      0.0033976113
 H     -0.0079850679     -0.0154276331     -0.0058883120
 H     -0.0149930398     -0.0044984561     -0.0148771609
 H     -0.0039512718      0.0106265891     -0.0141609296
 H     -0.0052312949     -0.0007576907     -0.0018007711
 H     -0.0041760668      0.0052356162      0.0057498032
 H      0.0009166032     -0.0000317397      0.0044845247
 H      0.0110725975      0.0066992073     -0.0094703238
 H     -0.0046552232     -0.0014398406      0.0004328306
 H      0.0023470276     -0.0028539621      0.0086459323
 H      0.0065650209     -0.0170607249      0.0146757300
 H      0.0035964197     -0.0082244664      0.0021037840
 H      0.0093235348     -0.0142838573     -0.0272341267
 H     -0.0115986907     -0.0063061969     -0.0221678226
 H      0.0199905346      0.0126727253     -0.0249877099
 H      0.0128245448      0.0266851103      0.0077715146
 H      0.0011852681      0.0150459173      0.0160273012
38
# ORCA AIMD Force Step 2, t=1.00 fs, E_Pot=-772.17755808 Hartree, Unit is Hartree/Angstrom
 C     -0.0162908839      0.0036459361     -0.0100282449
 C      0.0022372663     -0.0325117459     -0.0022766009
 C     -0.0037282070      0.0105556831      0.0019064833
 C     -0.0053531667      0.0240673921     -0.0003151211
 C      0.0086736900     -0.0106589170      0.0121159267
 C     -0.0011797418      0.0078591203      0.0026015561
 C     -0.0103531544      0.0118232324      0.0018350688
 C      0.0042709594      0.0028985951      0.0204266642
 C     -0.0003496693     -0.0063423942      0.0065365121
 C      0.0003498846      0.0120136328     -0.0045174952
 C     -0.0156387110      0.0047887251      0.0262127915
 C     -0.0069007879      0.0084428428      0.0034790770
 C     -0.0174627335      0.0102022776      0.0069332140
 C      0.0047741660      0.0028429009      0.0120542909
 C      0.0086881974     -0.0019977054     -0.0410497883
 C     -0.0134855063      0.0254194317      0.0323357290
 C      0.0269360512     -0.0012282505      0.0014332525
 C     -0.0277603233     -0.0056337928      0.0550861746
 C     -0.0059630373     -0.0425609610     -0.0418320771
 C     -0.0018659717     -0.0078690897     -0.0035856255
 H      0.0255455945     -0.0081292649      0.0214863155
 H      0.0032684795      0.0027709493      0.0033573084
 H     -0.0093713169     -0.0208538374     -0.0065221130
 H     -0.0193062183     -0.0077253681     -0.0198718138
 H     -0.0058439507      0.0132570101     -0.0166817617
 H     -0.0005373812     -0.0098025466     -0.0012752385
 H     -0.0016877926      0.0030073137      0.0045826290
 H     -0.0000726374     -0.0007602439     -0.0031665866
 H      0.0153047902      0.0077936915     -0.0111871037
 H     -0.0007518291     -0.0061228153     -0.0061654340
 H      0.0055805280     -0.0038305640      0.0042328871
 H      0.0086965604     -0.0244770722      0.0207846533
 H      0.0010737708     -0.0065382594      0.0080770407
 H      0.0142265035     -0.0242295538     -0.0416336505
 H     -0.0169958509     -0.0088268290     -0.0325334595
 H      0.0296286908      0.0191290446     -0.0382862131
 H      0.0189319709      0.0399564632      0.0140885728
 H      0.0023713556      0.0199280078      0.0215049730
38
# ORCA AIMD Force Step 3, t=1.50 fs, E_Pot=-772.17058344 Hartree, Unit is Hartree/Angstrom
 C     -0.0223091404      0.0042290443     -0.0135513654
 C     -0.0001550056     -0.0468867093     -0.0068596371
 C     -0.0028755573      0.0145897682      0.0054742264
 C     -0.0095571544      0.0367087984     -0.0019648727
 C      0.0120116156     -0.0154410953      0.0166963689
 C     -0.0014218027      0.0104340855      0.0034920224
 C     -0.0113848206      0.0143313733      0.0040945085
 C      0.0019739299      0.0073913564      0.0273456433
 C      0.0024147389     -0.0115629140      0.0135738318
 C     -0.0026881347      0.0202115216     -0.0110107862
 C     -0.0191318343      0.0060134788      0.0352752190
 C     -0.0093088234      0.0120269596      0.0041101594
 C     -0.0261053789      0.0152812034      0.0104031940
 C      0.0085721963      0.0030270758      0.0140955196
 C      0.0114397985     -0.0020609646     -0.0544799638
 C     -0.0181555788      0.0362486199      0.0428907639
 C      0.0342582564     -0.0012916333      0.0042400573
 C     -0.0380398920     -0.0030047694      0.0825035808
 C     -0.0064876441     -0.0627151043     -0.0661044912
 C     -0.0036772235     -0.0104832545     -0.0035080858
 H      0.0335665192     -0.0083421787      0.0267870541
 H      0.0036006471      0.0097818909      0.0032065498
 H     -0.0098655962     -0.0247850812     -0.0064883916
 H     -0.0220875935     -0.0107850353     -0.0234386119
 H     -0.0073697259      0.0149466298     -0.0178074713
 H      0.0039381782     -0.0183650605     -0.0007869469
 H      0.0009597640      0.0005389816      0.0031653705
 H     -0.0011067891     -0.0014773032     -0.0106670469
 H      0.0185246550      0.0081527965     -0.0119191523
 H      0.0029045824     -0.0104297865     -0.0123364317
 H      0.0086712679     -0.0046904875     -0.0003985771
 H      0.0099331667     -0.0300627892      0.0253060970
 H     -0.0013025677     -0.0048342750      0.0137272176
 H      0.0177563891     -0.0326309085     -0.0518696170
 H     -0.0209065824     -0.0104418330     -0.0402023274
 H      0.0361685164      0.0237679662     -0.0480754671
 H      0.0232457674      0.0495750301      0.0200051089
 H      0.0036551194      0.0233194492      0.0252589951
38
# ORCA AIMD Force Step 4, t=2.00 fs, E_Pot=-772.16324951 Hartree, Unit is Hartree/Angstrom
 C     -0.0266613176      0.0036265830     -0.0153746799
 C     -0.0023061016     -0.0601493475     -0.0113123645
 C     -0.0030083771      0.0171339946      0.0082781067
 C     -0.0152793696      0.0488266894     -0.0049046586
 C      0.0149360819     -0.0190679939      0.0196801926
 C     -0.0008964768      0.0119084247      0.0045378451
 C     -0.0121799520      0.0167129459      0.0065760991
 C     -0.0005658956      0.0119013539      0.0331541949
 C      0.0062313834     -0.0158703542      0.0195058981
 C     -0.0057448249      0.0282351304     -0.0173163644
 C     -0.0222021508      0.0069973081      0.0436549817
 C     -0.0109156685      0.0151192420      0.0039537523
 C     -0.0343751500      0.0199900105      0.0136616631
 C      0.0131735540      0.0014820934      0.0170642059
 C      0.0137177462     -0.0018741083     -0.0664252704
 C     -0.0213505175      0.0453328236      0.0494540654
 C      0.0394704124     -0.0020539796      0.0046972701
 C     -0.0451167971      0.0011496040      0.1055673721
 C     -0.0053868696     -0.0788258550     -0.0888502560
 C     -0.0055231409     -0.0115464053     -0.0017711363
 H      0.0396735313     -0.0073850788      0.0301543067
 H      0.0039385101      0.0159157447      0.0031280425
 H     -0.0094116751     -0.0270546735     -0.0057518390
 H     -0.0232164470     -0.0135839280     -0.0254312742
 H     -0.0084628824      0.0155838131     -0.0174555282
 H      0.0075521382     -0.0259348506     -0.0005335838
 H      0.0035883323     -0.0019725198      0.0016751356
 H     -0.0020658120     -0.0021266772     -0.0172782744
 H      0.0206010616      0.0077233544     -0.0115786856
 H      0.0057652441     -0.0141699545     -0.0175624866
 H      0.0115609967     -0.0054428643     -0.0048639920
 H      0.0102702525     -0.0336362562      0.0281059389
 H     -0.0033638312     -0.0034046892      0.0188968049
 H      0.0199777727     -0.0393552536     -0.0581340304
 H     -0.0232291135     -0.0111459622     -0.0449812578
 H      0.0397572618      0.0266610374     -0.0544017313
 H      0.0257192801      0.0554740525      0.0252683850
 H      0.0049786709      0.0250785876      0.0271354048
38
# ORCA AIMD Force Step 5, t=2.50 fs, E_Pot=-772.15662307 Hartree, Unit is Hartree/Angstrom
 C     -0.0292167628      0.0019301169     -0.0154637904
 C     -0.0043446795     -0.0716268990     -0.0157740858
 C     -0.0041736516      0.0181154099      0.0102608363
 C     -0.0224677464      0.0601765938     -0.0091763636
 C      0.0174091148     -0.0214474311      0.0210446064
 C      0.0009823350      0.0119556252      0.0059784588
 C     -0.0126171177      0.0187950601      0.0090544773
 C     -0.0034459223      0.0163237509      0.0370792578
 C      0.0110315634     -0.0190936267      0.0240755700
 C     -0.0087288005      0.0359121973     -0.0231959845
 C     -0.0247564778      0.0077001871      0.0511761007
 C     -0.0112911630      0.0176437259      0.0026042673
 C     -0.0421445706      0.0242845583      0.0163401955
 C      0.0184945194     -0.0018271448      0.0208715489
 C      0.0154118513     -0.0012097348     -0.0766907096
 C     -0.0231194126      0.0525801858      0.0523113254
 C      0.0424785897     -0.0034536835      0.0028071999
 C     -0.0490329526      0.0062590201      0.1236449539
 C     -0.0028614917     -0.0905134098     -0.1091125916
 C     -0.0073125462     -0.0109506721      0.0016581552
 H      0.0437151914     -0.0053293884      0.0315315150
 H      0.0044359765      0.0205420857      0.0033197066
 H     -0.0080003501     -0.0275764689     -0.0043142793
 H     -0.0226620035     -0.0160393163     -0.0257868890
 H     -0.0090736385      0.0150957330     -0.0156070216
 H      0.0097064617     -0.0320929400     -0.0007050097
 H      0.0060236434     -0.0043289800      0.0002928801
 H     -0.0028111224     -0.0026498939     -0.0222253492
 H      0.0214499134      0.0064905987     -0.0101206823
 H      0.0073232923     -0.0172174011     -0.0213915602
 H      0.0142076619     -0.0061062068     -0.0087485070
 H      0.0097450471     -0.0351074616      0.0291332958
 H     -0.0049855160     -0.0024850761      0.0234737361
 H      0.0209741617     -0.0443367532     -0.0606796243
 H     -0.0239300184     -0.0109676221     -0.0467956967
 H      0.0405610680      0.0278961008     -0.0573544291
 H      0.0263814788      0.0577438972      0.0296838122
 H      0.0062808771      0.0251269148      0.0270549596
38
# ORCA AIMD Force Step 6, t=3.00 fs, E_Pot=-772.15140926 Hartree, Unit is Hartree/Angstrom
 C     -0.0299431486     -0.0006450296     -0.0138901623
 C     -0.0064087178     -0.0809195066     -0.0204372214
 C     -0.0063153442      0.0175284642      0.0115036271
 C     -0.0310750234      0.0706019443     -0.0147987919
 C      0.0193506702     -0.0225864257      0.0208557432
 C      0.0046087097      0.0103726184      0.0079195104
 C     -0.0124391182      0.0202815145      0.0114049384
 C     -0.0067710035      0.0206106308      0.0386190525
 C      0.0168563089     -0.0212607905      0.0272492503
 C     -0.0115508843      0.0431494246     -0.0284480431
 C     -0.0268681887      0.0081355873      0.0577355650
 C     -0.0100681188      0.0195768448     -0.0000770767
 C     -0.0493969627      0.0281817205      0.0181019897
 C      0.0244511633     -0.0068316178      0.0255696649
 C      0.0164740450      0.0000615346     -0.0851201410
 C     -0.0235522491      0.0579299444      0.0516190138
 C      0.0431870326     -0.0054544400     -0.0014709652
 C     -0.0497470746      0.0119892997      0.1362672939
 C      0.0009393925     -0.0974102438     -0.1260546166
 C     -0.0089610356     -0.0087194894      0.0067119260
 H      0.0456460853     -0.0022694622      0.0309419508
 H      0.0052208573      0.0232517567      0.0039211854
 H     -0.0056830105     -0.0263622087     -0.0022207373
 H     -0.0204269794     -0.0180764683     -0.0244789679
 H     -0.0091948377      0.0135140757     -0.0123569955
 H      0.0099531630     -0.0365868221     -0.0014551925
 H      0.0080552278     -0.0062623267     -0.0007602895
 H     -0.0032391676     -0.0029995631     -0.0250414615
 H      0.0210868907      0.0045087719     -0.0076083506
 H      0.0072419831     -0.0195643379     -0.0235689260
 H      0.0165960502     -0.0066936256     -0.0117695759
 H      0.0083939617     -0.0344146155      0.0283369084
 H     -0.0060764381     -0.0023257587      0.0273672128
 H      0.0208317314     -0.0475561593     -0.0597552461
 H     -0.0229860260     -0.0099463950     -0.0456082738
 H      0.0387047277      0.0275286947     -0.0570088482
 H      0.0252153285      0.0563729915      0.0330634425
 H      0.0075103655      0.0234606386      0.0250163120
38
# ORCA AIMD Force Step 7, t=3.50 fs, E_Pot=-772.14784352 Hartree, Unit is Hartree/Angstrom
 C     -0.0287616386     -0.0040209710     -0.0106099813
 C     -0.0085487256     -0.0877252018     -0.0253661851
 C     -0.0094117971      0.0154439827      0.0120160973
 C     -0.0409527595      0.0798918149     -0.0217317233
 C      0.0208301506     -0.0225192351      0.0192302087
 C      0.0101537915      0.0071904575      0.0105026227
 C     -0.0115617293      0.0210268161      0.0134545272
 C     -0.0106196616      0.0247014927      0.0373766455
 C      0.0235191310     -0.0222808997      0.0288420820
 C     -0.0142067213      0.0498400314     -0.0328647676
 C     -0.0283895241      0.0082373037      0.0631119190
 C     -0.0071381468      0.0210150345     -0.0040944528
 C     -0.0560694567      0.0316745132      0.0186835338
 C      0.0309653874     -0.0134965044      0.0310394402
 C      0.0168893987      0.0020289755     -0.0916779279
 C     -0.0226667362      0.0613015186      0.0474303985
 C      0.0416032273     -0.0080274705     -0.0081786175
 C     -0.0471152063      0.0179404693      0.1426527299
 C      0.0059187744     -0.0991174094     -0.1388724600
 C     -0.0103897440     -0.0048380209      0.0133084407
 H      0.0453638617      0.0017122806      0.0283749192
 H      0.0063976434      0.0237502136      0.0050434135
 H     -0.0025378063     -0.0234828431      0.0004644711
 H     -0.0165952658     -0.0196381537     -0.0215558811
 H     -0.0088238399      0.0108852909     -0.0078289338
 H      0.0080867714     -0.0393383804     -0.0028505090
 H      0.0095581021     -0.0076054900     -0.0013459265
 H     -0.0032503440     -0.0031384725     -0.0253213862
 H      0.0195284110      0.0018251970     -0.0040917814
 H      0.0053562213     -0.0212400184     -0.0239636592
 H      0.0187111264     -0.0072224443     -0.0136096096
 H      0.0062880188     -0.0315710273      0.0257530056
 H     -0.0066277993     -0.0030138827      0.0305459784
 H      0.0195477683     -0.0488919261     -0.0553573558
 H     -0.0203588503     -0.0081019189     -0.0413232527
 H      0.0341173653      0.0254978835     -0.0531966691
 H      0.0221853449      0.0513475907      0.0352404762
 H      0.0086070213      0.0200964229      0.0210520960
38
# ORCA AIMD Force Step 8, t=4.00 fs, E_Pot=-772.14565784 Hartree, Unit is Hartree/Angstrom
 C     -0.0255064637     -0.0080915888     -0.0056076147
 C     -0.0107583731     -0.0920181027     -0.0306662615
 C     -0.0134686187      0.0119812438      0.0118979757
 C     -0.0519263196      0.0878895971     -0.0298723637
 C      0.0219219692     -0.0213352431      0.0163410665
 C      0.0175445395      0.0025733456      0.0137362369
 C     -0.0100121232      0.0209789935      0.0150820007
 C     -0.0149778107      0.0284794425      0.0332808272
 C      0.0308661653     -0.0222427883      0.0287884956
 C     -0.0165525951      0.0559634522     -0.0361781211
 C     -0.0293604773      0.0080081026      0.0672733525
 C     -0.0027165028      0.0220875635     -0.0094197607
 C     -0.0621244799      0.0346983578      0.0178885471
 C      0.0380389660     -0.0217635559      0.0372503907
 C      0.0166904515      0.0046838719     -0.0962431794
 C     -0.0203382256      0.0625796811      0.0395029080
 C      0.0375721389     -0.0110782165     -0.0171640431
 C     -0.0407915104      0.0238664898      0.1419731280
 C      0.0120401866     -0.0951714803     -0.1468566188
 C     -0.0115842958      0.0006462342      0.0213532130
 H      0.0427571207      0.0065777371      0.0237901493
 H      0.0080372816      0.0219588509      0.0067210018
 H      0.0013287612     -0.0190564153      0.0036672866
 H     -0.0113235237     -0.0206951024     -0.0171425867
 H     -0.0079893483      0.0073369389     -0.0022000899
 H      0.0041751787     -0.0404648491     -0.0048650971
 H      0.0104488147     -0.0081950606     -0.0013611679
 H     -0.0027777049     -0.0030302281     -0.0229608361
 H      0.0168759880     -0.0014573505      0.0002925791
 H      0.0017752444     -0.0223698002     -0.0226887416
 H      0.0205640514     -0.0077043439     -0.0140575227
 H      0.0034781191     -0.0265755424      0.0213859992
 H     -0.0066787001     -0.0046270142      0.0329904660
 H      0.0170732738     -0.0481731331     -0.0473410310
 H     -0.0160821418     -0.0054765603     -0.0339968194
 H      0.0266226069      0.0216568951     -0.0456322386
 H      0.0172017110      0.0425418192      0.0360430433
 H      0.0095383831      0.0151301071      0.0152725921
38
# ORCA AIMD Force Step 9, t=4.50 fs, E_Pot=-772.14414865 Hartree, Unit is Hartree/Angstrom
 C     -0.0203008491     -0.0127319592      0.0009633160
 C     -0.0131489607     -0.0938058823     -0.0358388118
 C     -0.0179235280      0.0074552333      0.0111262719
 C     -0.0632868403      0.0943240222     -0.0387192493
 C      0.0224051118     -0.0192832261      0.0127066069
 C      0.0260697126     -0.0029000529      0.0172478746
 C     -0.0077460218      0.0200162525      0.0159836895
 C     -0.0195625996      0.0318529415      0.0267391020
 C      0.0382625663     -0.0209671401      0.0271815460
 C     -0.0184162489      0.0607929909     -0.0381927079
 C     -0.0296239859      0.0075064575      0.0699858467
 C      0.0027647760      0.0228435713     -0.0154823006
 C     -0.0673119406      0.0372095471      0.0159325745
 C      0.0450487229     -0.0312554377      0.0435197490
 C      0.0161257768      0.0077121105     -0.0986278253
 C     -0.0165410455      0.0611025764      0.0279414684
 C      0.0313674414     -0.0144032239     -0.0282010185
 C     -0.0307490279      0.0296236827      0.1336212516
 C      0.0192040786     -0.0850863409     -0.1490798663
 C     -0.0123171709      0.0071885925      0.0302421965
 H      0.0378165782      0.0121346300      0.0172718497
 H      0.0099638502      0.0182811510      0.0088280027
 H      0.0056871396     -0.0134226832      0.0071546234
 H     -0.0049445092     -0.0212046786     -0.0115348750
 H     -0.0067525396      0.0030882488      0.0040484928
 H     -0.0011742579     -0.0402535325     -0.0072435784
 H      0.0105962210     -0.0079954330     -0.0007061502
 H     -0.0019256653     -0.0027281072     -0.0182844838
 H      0.0134387527     -0.0050195847      0.0052096110
 H     -0.0030720111     -0.0229708467     -0.0200619308
 H      0.0220855770     -0.0080966528     -0.0132579097
 H      0.0001862519     -0.0196880749      0.0154997528
 H     -0.0063365082     -0.0066861155      0.0347048735
 H      0.0133659150     -0.0451330413     -0.0355978709
 H     -0.0102842546     -0.0022574182     -0.0238173202
 H      0.0162330478      0.0159881422     -0.0342667152
 H      0.0101383746      0.0299694715      0.0352072884
 H      0.0102192445      0.0088981427      0.0080583903
38
# ORCA AIMD Force Step 10, t=5.00 fs, E_Pot=-772.14235335 Hartree, Unit is Hartree/Angstrom
 C     -0.0130554384     -0.0178104973      0.0091168942
 C     -0.0153360369     -0.0938215892     -0.0410849958
 C     -0.0229113840      0.0022392834      0.0100634762
 C     -0.0749751922      0.0993107490     -0.0481630675
 C      0.0227229751     -0.0166756889      0.0085655944
 C      0.0353843697     -0.0090480050      0.0210419508
 C     -0.0049017738      0.0182627751      0.0164600131
 C     -0.0244206338      0.0348447795      0.0183181804
 C      0.0457214602     -0.0189534605      0.0241953860
 C     -0.0199637416      0.0649389609     -0.0387988484
 C     -0.0292788886      0.0066416798      0.0712074759
 C      0.0088383614      0.0235304959     -0.0219297123
 C     -0.0718239220      0.0392028559      0.0127380766
 C      0.0523302259     -0.0417653279      0.0500258656
 C      0.0151682515      0.0110713347     -0.0989442320
 C     -0.0112044099      0.0570914879      0.0121003029
 C      0.0230075117     -0.0179935928     -0.0410279948
 C     -0.0166060842      0.0354505513      0.1173813061
 C      0.0276113876     -0.0690167877     -0.1457608185
 C     -0.0127406054      0.0146864967      0.0397546318
 H      0.0305823748      0.0183508639      0.0088896539
 H      0.0121714376      0.0130656780      0.0112211202
 H      0.0102806490     -0.0069746037      0.0107891100
 H      0.0022008605     -0.0212299903     -0.0050538996
 H     -0.0052440562     -0.0014848943      0.0106105623
 H     -0.0076196156     -0.0390186889     -0.0098800143
 H      0.0101171093     -0.0069625889      0.0005245483
 H     -0.0007087528     -0.0022070649     -0.0118741827
 H      0.0094367989     -0.0087660206      0.0104208531
 H     -0.0087662444     -0.0232842929     -0.0164558104
 H      0.0233208594     -0.0084058661     -0.0111654128
 H     -0.0035302302     -0.0111449695      0.0082620543
 H     -0.0057153027     -0.0093875185      0.0357071980
 H      0.0083041735     -0.0395617229     -0.0197489047
 H     -0.0030890159      0.0015399403     -0.0110030207
 H      0.0026331397      0.0082241459     -0.0186677507
 H      0.0009178962      0.0134714854      0.0326676947
 H      0.0106845174      0.0016827953     -0.0002645800
38
# ORCA AIMD Force Step 11, t=5.50 fs, E_Pot=-772.13936233 Hartree, Unit is Hartree/Angstrom
 C     -0.0040533875     -0.0231201161      0.0185463264
 C     -0.0171974823     -0.0924974326     -0.0460064781
 C     -0.0279785696     -0.0030973629      0.0088572655
 C     -0.0862073270      0.1027715546     -0.0575320798
 C      0.0229155620     -0.0139468339      0.0045180115
 C      0.0446977343     -0.0153672831      0.0247474214
 C     -0.0016616106      0.0158602952      0.0164793562
 C     -0.0292242407      0.0373699917      0.0088265755
 C      0.0526350636     -0.0163446859      0.0201341595
 C     -0.0211056699      0.0680906650     -0.0378905161
 C     -0.0282633682      0.0054473521      0.0708264073
 C      0.0148470129      0.0242150904     -0.0282203989
 C     -0.0754978330      0.0405879550      0.0086327431
 C      0.0594494129     -0.0526477407      0.0560748125
 C      0.0140059936      0.0144543658     -0.0970417445
 C     -0.0043402457      0.0502706383     -0.0079543828
 C      0.0129666097     -0.0215428317     -0.0547788497
 C      0.0012990751      0.0413118829      0.0936673312
 C      0.0370851009     -0.0474396672     -0.1369058219
 C     -0.0128038728      0.0224204441      0.0490956510
 H      0.0213049716      0.0249986398     -0.0010731532
 H      0.0144459795      0.0069161515      0.0136774070
 H      0.0147585683     -0.0002840923      0.0142864742
 H      0.0095175923     -0.0208302559      0.0017285966
 H     -0.0036079810     -0.0059533201      0.0169048169
 H     -0.0144272645     -0.0371156894     -0.0124796965
 H      0.0090646403     -0.0052028718      0.0022460201
 H      0.0007146070     -0.0015221882     -0.0044498281
 H      0.0053190020     -0.0123500017      0.0154780907
 H     -0.0147004811     -0.0233727506     -0.0123292686
 H      0.0242210417     -0.0085826473     -0.0080706990
 H     -0.0074103489     -0.0015227456      0.0001652771
 H     -0.0049466815     -0.0123608662      0.0360143511
 H      0.0018936176     -0.0313142564      0.0001860893
 H      0.0050599204      0.0056430332      0.0036638477
 H     -0.0138589121     -0.0014867143      0.0007848668
 H     -0.0103203355     -0.0064645802      0.0284064783
 H      0.0109348836     -0.0058960564     -0.0090048254
38
# ORCA AIMD Force Step 12, t=6.00 fs, E_Pot=-772.13470423 Hartree, Unit is Hartree/Angstrom
 C      0.0061528890     -0.0283673680      0.0287322772
 C     -0.0185162229     -0.0904143358     -0.0503552497
 C     -0.0327318270     -0.0078973825      0.0077876090
 C     -0.0962328838      0.1047793384     -0.0661100487
 C      0.0231539693     -0.0115946710      0.0011414639
 C      0.0533627468     -0.0215129756      0.0280749274
 C      0.0017335101      0.0130460937      0.0161693008
 C     -0.0337140998      0.0393863915     -0.0009021123
 C      0.0585046623     -0.0134656374      0.0153992355
 C     -0.0218565869      0.0702469451     -0.0354387386
 C     -0.0265543389      0.0039245714      0.0687778454
 C      0.0202225651      0.0249682865     -0.0338810278
 C     -0.0782735108      0.0413019493      0.0039444425
 C      0.0661122794     -0.0630534107      0.0609518363
 C      0.0127646560      0.0176098726     -0.0928376039
 C      0.0038482942      0.0408366451     -0.0317536118
 C      0.0019235987     -0.0247018449     -0.0681671493
 C      0.0220103985      0.0469565146      0.0640170756
 C      0.0471660259     -0.0217681385     -0.1231975686
 C     -0.0125698239      0.0296001831      0.0573869936
 H      0.0105381469      0.0317786303     -0.0120850583
 H      0.0165941353      0.0004303737      0.0159662682
 H      0.0187175167      0.0059790167      0.0173503501
 H      0.0162993447     -0.0201130132      0.0081194168
 H     -0.0020193086     -0.0098088685      0.0223575974
 H     -0.0209729047     -0.0348575416     -0.0147987418
 H      0.0075750948     -0.0028741138      0.0042943623
 H      0.0021943496     -0.0007185363      0.0032254396
 H      0.0015692227     -0.0154505280      0.0199110320
 H     -0.0203277085     -0.0233136661     -0.0081026713
 H      0.0247528072     -0.0085817137     -0.0042976441
 H     -0.0111732301      0.0083624414     -0.0081262053
 H     -0.0041609784     -0.0153548399      0.0356505696
 H     -0.0056910204     -0.0205612896      0.0236966471
 H      0.0134937180      0.0097269195      0.0189629835
 H     -0.0323477833     -0.0126248234      0.0229405286
 H     -0.0230475949     -0.0287113522      0.0227022303
 H      0.0110291412     -0.0130877409     -0.0173257026
38
# ORCA AIMD Force Step 13, t=6.50 fs, E_Pot=-772.12870510 Hartree, Unit is Hartree/Angstrom
 C      0.0166395116     -0.0331325586      0.0388396591
 C     -0.0190796187     -0.0880968798     -0.0538956872
 C     -0.0367579188     -0.0114590644      0.0071430607
 C     -0.1042365330      0.1054368332     -0.0731030409
 C      0.0236082773     -0.0101202596     -0.0010198060
 C      0.0608488301     -0.0272256559      0.0307781345
 C      0.0050132254      0.0101060150      0.0156898484
 C     -0.0376340403      0.0408522241     -0.0101164075
 C      0.0628443332     -0.0106525890      0.0104418704