38
# ORCA AIMD Position Step 0, t=0.00 fs, E_Pot=-772.18552152 Hartree, Unit is Angstrom
 C      1.5713490070      0.6365500029     -0.7487280034
 C      2.3912260107      1.7267950077     -0.0832270004
 C      3.3457340150      1.4931910067      0.8332070037
 C      3.7415080168      0.1717720008      1.3536740061
 C      2.7199640122     -0.9473600042      1.5843960071
 C      3.7711730169     -1.0875070049      0.4782530021
 C      3.4192560153     -1.0696670048     -0.9540240043
 C      2.4561840110     -0.3228210014     -1.5198170068
 C      1.2813800057     -0.7897290035      1.3057270058
 C      0.7195840032     -0.0953070004      0.2918910013
 C     -0.7548090034     -0.0055800000      0.1523640007
 C     -1.2970220058     -0.3788610017     -1.1809750053
 C     -2.4903050112      0.3202990014     -1.8357980082
 C     -3.2172660144      1.4270170064     -1.1857370053
 C     -3.4695010155      1.5395930069      0.1293720006
 C     -3.0286580136      0.5148520023      1.1600990052
 C     -1.5161550068      0.3999130018      1.1926290053
 C     -3.6769070165     -0.8306110037      0.8911790040
 C     -3.4739130156     -1.5368550069     -0.2332460010
 C     -2.6134500117     -1.1356930051     -1.3624210061
 H      0.8901370040      1.1214180050     -1.4593740065
 H      2.1851090098      2.7606400124     -0.3763990017
 H      3.8852840174      2.3477630105      1.2534570056
 H      4.5383680203      0.2057420009      2.1009410094
 H      2.9294700131     -1.5601250070      2.4648970110
 H      4.5831710205     -1.7751020080      0.7280920033
 H      4.0097850180     -1.7328190078     -1.5940490071
 H      2.2969110103     -0.3992250018     -2.6002620116
 H      0.6081110027     -1.3094460059      1.9936150089
 H     -0.5266080024     -0.6923740031     -1.8890870085
 H     -2.4003350108      0.4235220019     -2.9203110131
 H     -3.5761410160      2.2144400099     -1.8560710083
 H     -4.0224530180      2.4135330108      0.4875960022
 H     -3.3597050150      0.8626740039      2.1480020096
 H     -1.0066840045      0.6885470031      2.1161420095
 H     -4.3434770195     -1.2367460055      1.6583000074
 H     -3.9832600178     -2.4989410112     -0.3469760016
 H     -2.5870560116     -1.8634930083     -2.1773310098
38
# ORCA AIMD Position Step 1, t=0.50 fs, E_Pot=-772.18292621 Hartree, Unit is Angstrom
 C      1.5755134075      0.6349627647     -0.7473413203
 C      2.3912310982      1.7326857794     -0.0759790488
 C      3.3504620962      1.4916391156      0.8331682272
 C      3.7472533298      0.1658769275      1.3565237060
 C      2.7172955214     -0.9459059347      1.5821578973
 C      3.7688080703     -1.0858955792      0.4764384035
 C      3.4216874552     -1.0734934444     -0.9557751995
 C      2.4600806509     -0.3265081597     -1.5206210871
 C      1.2780247088     -0.7897001269      1.3054224786
 C      0.7216963917     -0.1034181079      0.2899765811
 C     -0.7520408156     -0.0082646826      0.1486931843
 C     -1.2952976417     -0.3828475774     -1.1802999122
 C     -2.4848440714      0.3169123903     -1.8354642854
 C     -3.2208734590      1.4251331343     -1.1878422934
 C     -3.4684514281      1.5374611557      0.1320984265
 C     -3.0257088036      0.5111829144      1.1593853343
 C     -1.5144594298      0.3974164925      1.1927262320
 C     -3.6771072726     -0.8294643345      0.8858156451
 C     -3.4739945555     -1.5320518962     -0.2293072620
 C     -2.6108873663     -1.1378348040     -1.3640139379
 H      0.8754033047      1.1095788695     -1.4652334620
 H      2.1758986554      2.7569483300     -0.3755284843
 H      3.8892737460      2.3554381761      1.2511540668
 H      4.5464244244      0.2124746625      2.1107338342
 H      2.9318750641     -1.5690117570      2.4599814392
 H      4.5867366340     -1.7526584081      0.7328510349
 H      4.0059484004     -1.7389693135     -1.5952086531
 H      2.2966541022     -0.4027355271     -2.5944281803
 H      0.5959075307     -1.3063826190      1.9941862356
 H     -0.5198908461     -0.6773485236     -1.8813340175
 H     -2.4102808530      0.4241049545     -2.9176544918
 H     -3.5731415561      2.2240629324     -1.8642860514
 H     -4.0116024123      2.4213432211      0.4698212678
 H     -3.3615817926      0.8822189242      2.1597514707
 H     -0.9992262440      0.6832096593      2.1286018893
 H     -4.3507886805     -1.2425485336      1.6712930150
 H     -3.9913349296     -2.5056967767     -0.3666667441
 H     -2.5946634340     -1.8719152978     -2.1837959379
38
# ORCA AIMD Position Step 2, t=1.00 fs, E_Pot=-772.17755808 Hartree, Unit is Angstrom
 C      1.5796321491      0.6333844263     -0.7459806015
 C      2.3912634197      1.7384833387     -0.0687126287
 C      3.3551631088      1.4901145892      0.8331166075
 C      3.7529877797      0.1600391871      1.3593759870
 C      2.7146527988     -0.9444775405      1.5799514672
 C      3.7664373753     -1.0842578772      0.4746317575
 C      3.4240698010     -1.0772708951     -0.9575276043
 C      2.4640147628     -0.3302057182     -1.5213537944
 C      1.2746558471     -0.7896732863      1.3051103350
 C      0.7238280718     -0.1115134204      0.2880716905
 C     -0.7493353591     -0.0109325966      0.1451112032
 C     -1.2935951609     -0.3868118568     -1.1796107833
 C     -2.4794267339      0.3135500162     -1.8351105977
 C     -3.2244730817      1.4232537591     -1.1898891542
 C     -3.4673705208      1.5353174702      0.1346821875
 C     -3.0227976573      0.5075827361      1.1587674556
 C     -1.5126662500      0.3949082030      1.1928039045
 C     -3.6773856314     -0.8283513470      0.8805797494
 C     -3.4740963937     -1.5273488731     -0.2254589641
 C     -2.6083241770     -1.1399990244     -1.3656193093
 H      0.8616922441      1.0972955185     -1.4701595555
 H      2.1668656189      2.7529634117     -0.3744361368
 H      3.8927457541      2.3621130544      1.2484662029
 H      4.5535090777      0.2189183553      2.1195634991
 H      2.9340241888     -1.5772116689      2.4541405265
 H      4.5899636424     -1.7302506823      0.7374956293
 H      4.0018374656     -1.7447822849     -1.5959944753
 H      2.2964567438     -0.4062502282     -2.5882987406
 H      0.5844179561     -1.3028810317      1.9941409447
 H     -0.5134728791     -0.6624078059     -1.8735481774
 H     -2.4200797920      0.4245023610     -2.9144332122
 H     -3.5697126745      2.2325803639     -1.8715501075
 H     -4.0005110330      2.4286224118      0.4521728909
 H     -3.3628523980      0.9008451870      2.1697340616
 H     -0.9925194988      0.6774583486      2.1396253251
 H     -4.3568026259     -1.2475290938      1.6826662222
 H     -3.9985793492     -2.5107184337     -0.3858631058
 H     -2.6021982213     -1.8793626120     -2.1892207917
38
# ORCA AIMD Position Step 3, t=1.50 fs, E_Pot=-772.17058344 Hartree, Unit is Angstrom
 C      1.5836708207      0.6318225645     -0.7446717539
 C      2.3913080518      1.7441157774     -0.0614426900
 C      3.3598540592      1.4886444595      0.8330753043
 C      3.7587055494      0.1543202817      1.3622328141
 C      2.7120517188     -0.9431043190      1.5778064705
 C      3.7640550148     -1.0825735795      0.4728353727
 C      3.4264007439     -1.0809919672     -0.9592738220
 C      2.4679808884     -0.3338955473     -1.5219763623
 C      1.2712776668     -0.7896810846      1.3048332652
 C      0.7259663521     -0.1195608042      0.2861378983
 C     -0.7467095115     -0.0135801772      0.1416647527
 C     -1.2919266903     -0.3907386617     -1.1789011062
 C     -2.4740930228      0.3102360654     -1.8347182023
 C     -3.2280544988      1.4213858055     -1.1918745679
 C     -3.4662397062      1.5331581433      0.1370470533
 C     -3.0199538881      0.5041137081      1.1583251208
 C     -1.5107217668      0.3923876802      1.1928895887
 C     -3.6778164730     -0.8272667342      0.8756337089
 C     -3.4742310783     -1.5228683537     -0.2218310612
 C     -2.6057655616     -1.1422110524     -1.3672478258
 H      0.8496163141      1.0844552336     -1.4736958240
 H      2.1580257918      2.7491503666     -0.3731225311
 H      3.8956144953      2.3674431819      1.2453472657
 H      4.5593507677      0.2248726103      2.1271171664
 H      2.9357970813     -1.5845654058      2.4471993203
 H      4.5931627136     -1.7084327090      0.7420673032
 H      3.9976074699     -1.7504119935     -1.5964832917
 H      2.2962542165     -0.4098222144     -2.5823622509
 H      0.5739008160     -1.2988636904      1.9933662874
 H     -0.5070898142     -0.6478333799     -1.8661471355
 H     -2.4295364871      0.4246509337     -2.9109289173
 H     -3.5657093424      2.2395209030     -1.8774752180
 H     -3.9893252749      2.4354913867      0.4350122459
 H     -3.3631983966      0.9179329143      2.1770245747
 H     -0.9869059391      0.6711189901      2.1485521962
 H     -4.3608983510     -1.2512736148      1.6915686219
 H     -4.0046055532     -2.5131464404     -0.4041832574
 H     -2.6095949877     -1.8855272267     -2.1932557007
38
# ORCA AIMD Position Step 4, t=2.00 fs, E_Pot=-772.16324951 Hartree, Unit is Angstrom
 C      1.5876055305      0.6302768164     -0.7434312214
 C      2.3913520364      1.7495168334     -0.0541775104
 C      3.3645504319      1.4872476044      0.8330637977
 C      3.7643967799      0.1487766231      1.3650917734
 C      2.7095046882     -0.9418094724      1.5757432406
 C      3.7616541144     -1.0808245312      0.4710500063
 C      3.4286798512     -1.0846513392     -0.9610054950
 C      2.4719757261     -0.3375615466     -1.5224519648
 C      1.2678974653     -0.7897522495      1.3046292903
 C      0.7280995599     -0.1275338081      0.2841350707
 C     -0.7441765997     -0.0162067708      0.1383959536
 C     -1.2903016748     -0.3946173166     -1.1781657143
 C     -2.4688782208      0.3069908543     -1.8342670564
 C     -3.2316051293      1.4195260008     -1.1937917397
 C     -3.4650411306      1.5309777824      0.1391241995
 C     -3.0171967240      0.5008275610      1.1581157073
 C     -1.5085808709      0.3898487068      1.1929988830
 C     -3.6784576081     -0.8261936836      0.8711172269
 C     -3.4744019044     -1.5187111101     -0.2185488464
 C     -2.6032155387     -1.1444904821     -1.3689029067
 H      0.8396765513      1.0710125553     -1.4754998345
 H      2.1493810582      2.7459585129     -0.3715937258
 H      3.8978523204      2.3711798037      1.2417907960
 H      4.5637773084      0.2301498693      2.1331752391
 H      2.9370970010     -1.5909768627      2.4390646068
 H      4.5966332431     -1.6877148320      0.7466082519
 H      3.9934210201     -1.7560319351     -1.5967677310
 H      2.2959785421     -0.4135067364     -2.5770951370
 H      0.5645451930     -1.2942961369      1.9918102474
 H     -0.5004883767     -0.6338738590     -1.8595178093
 H     -2.4384699460      0.4244940590     -2.9074348187
 H     -3.5610396679      2.2445307628     -1.8817755048
 H     -3.9781740415      2.4420758620      0.4186700356
 H     -3.3623871117      0.9329681559      2.1809627968
 H     -0.9826314813      0.6640695485      2.1548956106
 H     -4.3626520756     -1.2534838543      1.6973736254
 H     -4.0091418541     -2.5123499627     -0.4212804902
 H     -2.6167865923     -1.8901977544     -2.1956603287
38
# ORCA AIMD Position Step 5, t=2.50 fs, E_Pot=-772.15662307 Hartree, Unit is Angstrom
 C      1.5914226363      0.6287397139     -0.7422659892
 C      2.3913836928      1.7546272822     -0.0469215224
 C      3.3692644699      1.4859345616      0.8330976100
 C      3.7700456109      0.1434604333      1.3679446306
 C      2.7070210478     -0.9406097875      1.5737729404
 C      3.7592308310     -1.0789974452      0.4692765402
 C      3.4309087357     -1.0882456676     -0.9627136978
 C      2.4759965217     -0.3411889404     -1.5227491875
 C      1.2645268506     -0.7899109757      1.3045308148
 C      0.7302167781     -0.1354099540      0.2820226985
 C     -0.7417470328     -0.0188140946      0.1353428075
 C     -1.2887247064     -0.3984412642     -1.1774032874
 C     -2.4638140182      0.3038316735     -1.8337376989
 C     -3.2351093375      1.4176607951     -1.1956292672
 C     -3.4637585984      1.5287712809      0.1408521362
 C     -3.0145366025      0.4977661431      1.1581760092
 C     -1.5062079184      0.3872799975      1.1931347353
 C     -3.6793508579     -0.8251065215      0.8671468898
 C     -3.4746035184     -1.5149559566     -0.2157300678
 C     -2.6006772575     -1.1468498225     -1.3705797421
 H      0.8322572814      1.0569894435     -1.4753462803
 H      2.1409308310      2.7437835880     -0.3698493704
 H      3.8994913396      2.3731754921      1.2378325510
 H      4.5667187761      0.2345777627      2.1376153611
 H      2.9378532987     -1.5964165056      2.4297299354
 H      4.6006225784     -1.6685411686      0.7511473636
 H      3.9894386247     -1.7618216719     -1.5969447636
 H      2.2955658542     -0.4173570483     -2.5729189010
 H      0.5564678604     -1.2891906071      1.9894861802
 H     -0.4934621363     -0.6207388407     -1.8539880253
 H     -2.4467128430      0.4239803330     -2.9042331798
 H     -3.5556648258      2.2473788224     -1.8842702548
 H     -3.9671615228      2.4484857298      0.4034439103
 H     -3.3602643081      0.9455407739      2.1811304083
 H     -0.9798440307      0.6562403962      2.1583454911
 H     -4.3618202832     -1.2539677815      1.6996655174
 H     -4.0120303117     -2.5079222691     -0.4368507257
 H     -2.6237051412     -1.8932632867     -2.1963090573
38
# ORCA AIMD Position Step 6, t=3.00 fs, E_Pot=-772.15140926 Hartree, Unit is Angstrom
 C      1.5951176140      0.6271977741     -0.7411739847
 C      2.3913918051      1.7593956665     -0.0396792938
 C      3.3740029306      1.4847078253      0.8331881167
 C      3.7756277778      0.1384213540      1.3707757418
 C      2.7046080778     -0.9395158478      1.5718984332
 C      3.7567886046     -1.0770863458      0.4675180974
 C      3.4330907099     -1.0917728689     -0.9643893278
 C      2.4800387744     -0.3447631122     -1.5228457477
 C      1.2611829709     -0.7901761626      1.3045635788
 C      0.7323073199     -0.1431679658      0.2797617131
 C     -0.7394290327     -0.0214053138      0.1325400681
 C     -1.2871939134     -0.4022067141     -1.1766189000
 C     -2.4589304210      0.3007741398     -1.8331132807
 C     -3.2385471641      1.4157668211     -1.1973706185
 C     -3.4623785397      1.5265359744      0.1421762246
 C     -3.0119767412      0.4949627603      1.1585242226
 C     -1.5035778310      0.3846665210      1.1932873698
 C     -3.6805223792     -0.8239740646      0.8638157631
 C     -3.4748228733     -1.5116602086     -0.2134822501
 C     -2.5981536452     -1.1492930025     -1.3722643118
 H      0.8276243760      1.0424767162     -1.4731276478
 H      2.1326860404      2.7429311676     -0.3678702419
 H      3.9006232485      2.3733865204      1.2335522094
 H      4.5682067031      0.2380004567      2.1404124904
 H      2.9380233806     -1.6009228622      2.4192801316
 H      4.6052872064     -1.6512752126      0.7556859254
 H      3.9858104411     -1.7679528619     -1.5971044071
 H      2.2949650515     -0.4214194495     -2.5701552280
 H      0.5497131629     -1.2836090319      1.9864764373
 H     -0.4858860651     -0.6085986700     -1.8498026440
 H     -2.4541087268      0.4230618352     -2.9015719193
 H     -3.5495982504      2.2479579274     -1.8848834728
 H     -3.9563646703      2.4547973428      0.3896010676
 H     -3.3567475593      0.9553381076      2.1773286096
 H     -0.9785946511      0.6476148511      2.1587675410
 H     -4.3583256741     -1.2526309476      1.6982269472
 H     -4.0132212803     -2.4996711368     -0.4506347248
 H     -2.6302821332     -1.8947152116     -2.1951937270
38
# ORCA AIMD Position Step 7, t=3.50 fs, E_Pot=-772.14784352 Hartree, Unit is Angstrom
 C      1.5986933397      0.6256333479     -0.7401449399
 C      2.3913647798      1.7637776978     -0.0324604789
 C      3.3787648706      1.4835623984      0.8333429861
 C      3.7811076500      0.1337085731      1.3735602590
 C      2.7022718657     -0.9385326591      1.5701155733
 C      3.7543417202     -1.0750947399      0.4657815997
 C      3.4352310909     -1.0952318804     -0.9660228314
 C      2.4840934494     -0.3482678617     -1.5227311529
 C      1.2578906998     -0.7905615061      1.3047465711
 C      0.7343600293     -0.1507840198      0.2773165383
 C     -0.7372302911     -0.0239836290      0.1300203524
 C     -1.2856996754     -0.4059107753     -1.1758253016
 C     -2.4542584395      0.2978340029     -1.8323816616
 C     -3.2418927769      1.4138120206     -1.1989927682
 C     -3.4608909494      1.5242735495      0.1430485568
 C     -3.0095149352      0.4924434621      1.1591605325
 C     -1.5006779806      0.3819909523      1.1934337912
 C     -3.6819818172     -0.8227617762      0.8611929647
 C     -3.4750397574     -1.5088595739     -0.2118999144
 C     -2.5956483059     -1.1518141351     -1.3739326688
 H      0.8259251372      1.0276370398     -1.4688545542
 H      2.1246820303      2.7435916512     -0.3656099010
 H      3.9013967297      2.3718729804      1.2290737967
 H      4.5683746017      0.2402808847      2.1416402002
 H      2.9375931378     -1.6045991756      2.4078923838
 H      4.6106612275     -1.6361942180      0.7601848959
 H      3.9826654426     -1.7745696481     -1.5973158230
 H      2.2941446500     -0.4257282706     -2.5689982382
 H      0.5442570363     -1.2776634983      1.9829312526
 H     -0.4777424665     -0.5975911673     -1.8471100073
 H     -2.4605081396      0.4216935122     -2.8996490718
 H     -3.5429072152      2.2462894195     -1.8836476871
 H     -3.9458333055      2.4610341065      0.3773811962
 H     -3.3518227909      0.9621400688      2.1695651564
 H     -0.9788358899      0.6382317039      2.1562066793
 H     -4.3522523407     -1.2494741085      1.6930356849
 H     -4.0127748569     -2.4876252920     -0.4624218328
 H     -2.6364478583     -1.8946479111     -2.1924257151
38
# ORCA AIMD Position Step 8, t=4.00 fs, E_Pot=-772.14565784 Hartree, Unit is Angstrom
 C      1.6021594635      0.6240255164     -0.7391602719
 C      2.3912903520      1.7677366809     -0.0252830247
 C      3.3835398075      1.4824863615      0.8335660744
 C      3.7864367486      0.1293712421      1.3762630891
 C      2.7000184789     -0.9376599952      1.5684142637
 C      3.7519174148     -1.0730364791      0.4640792640
 C      3.4373369770     -1.0986222588     -0.9676045305
 C      2.4881448541     -0.3516843822     -1.5224093546
 C      1.2546830426     -0.7910746803      1.3050907407
 C      0.7363624986     -0.1582294630      0.2746572796
 C     -0.7351578362     -0.0265516976      0.1278135982
 C     -1.2842243841     -0.4095496017     -1.1750434347
 C     -2.4498313934      0.2950281409     -1.8315372938
 C     -3.2451135324      1.4117563702     -1.2004662075
 C     -3.4592901977      1.5219915106      0.1434283479
 C     -3.0071443508      0.4902271704      1.1600664586
 C     -1.4975097822      0.3792348191      1.1935372062
 C     -3.6837203349     -0.8214342884      0.8593193556
 C     -3.4752270271     -1.5065661797     -0.2110601232
 C     -2.5931660486     -1.1543961832     -1.3755504993
 H      0.8271768156      1.0127077446     -1.4626630843
 H      2.1169885621      2.7458181727     -0.3629881672
 H      3.9020143558      2.3687993265      1.2245649114
 H      4.5674568065      0.2413048670      2.1414714180
 H      2.9365785552     -1.6076118662      2.3958364588
 H      4.6166385202     -1.6234870710      0.7645581912
 H      3.9801042850     -1.7817750596     -1.5976183534
 H      2.2930999970     -0.4303014647     -2.5694855670
 H      0.5400069595     -1.2715174241      1.9790695848
 H     -0.4691369330     -0.5878264069     -1.8459517868
 H     -2.4657679158      0.4198330749     -2.8985923060
 H     -3.5357129173      2.2425284320     -1.8807067353
 H     -3.9355931902      2.4671581249      0.3669976686
 H     -3.3455494849      0.9658292306      2.1580668892
 H     -0.9804151270      0.6281897529      2.1509018473
 H     -4.3438596689     -1.2446026955      1.6842862536
 H     -4.0108678997     -2.4720492548     -0.4720589406
 H     -2.6421331880     -1.8932621830     -2.1882398824
38
# ORCA AIMD Position Step 9, t=4.50 fs, E_Pot=-772.14414865 Hartree, Unit is Angstrom
 C      1.6055338424      0.6223506025     -0.7381926510
 C      2.3911556757      1.7712448116     -0.0181736506
 C      3.3883076042      1.4814611650      0.8338577679
 C      3.7915548434      0.1254567367      1.3788394414
 C      2.6978541225     -0.9368925005      1.5667790161
 C      3.7495556527     -1.0709351851      0.4624286414
 C      3.4394173050     -1.1019447451     -0.9691254186
 C      2.4921706643     -0.3549921016     -1.5218998941
 C      1.2516002510     -0.7917174574      1.3055981644
 C      0.7383019661     -0.1654713720      0.2717616264
 C     -0.7332178845     -0.0291117197      0.1259461022
 C     -1.2827433476     -0.4131179205     -1.1743024385
 C     -2.4456841260      0.2923738694     -1.8305826391
 C     -3.2481701334      1.4095521175     -1.2017553220
 C     -3.4575751423      1.5197032368      0.1432838293
 C     -3.0048524372      0.4883241733      1.1612024813
 C     -1.4940903789      0.3763790602      1.1935476161
 C     -3.6857077195     -0.8199568397      0.8582007592
 C     -3.4753506652     -1.5047643551     -0.2110167208
 C     -2.5907127217     -1.1570108940     -1.3770735143
 H      0.8312497778      0.9980003564     -1.4548247662
 H      2.1097142070      2.7495158407     -0.3598889394
 H      3.9027277767      2.3644329654      1.2202332549
 H      4.5657836163      0.2409861665      2.1401761721
 H      2.9350258529     -1.6101857091      2.3834671553
 H      4.6229734383     -1.6132550920      0.7686738112
 H      3.9781923648     -1.7896189206     -1.5980143836
 H      2.2918585471     -0.4351375101     -2.5714853498
 H      0.5368038802     -1.2653807007      1.9751729339
 H     -0.4602942790     -0.5793915358     -1.8462650956
 H     -2.4697530192      0.4174413414     -2.8984425151
 H     -3.5281896314      2.2369720419     -1.8763221791
 H     -3.9256473787      2.4730646377      0.3586317829
 H     -3.3380686305      0.9664112692      2.1433030246
 H     -0.9830710759      0.6176478246      2.1432933190
 H     -4.3336035385     -1.2382428356      1.6724218347
 H     -4.0078062200     -2.4534651206     -0.4794677687
 H     -2.6472728039     -1.8908648858     -2.1829938595
38
# ORCA AIMD Position Step 10, t=5.00 fs, E_Pot=-772.14235335 Hartree, Unit is Angstrom
 C      1.6088437202      0.6205821888     -0.7372061899
 C      2.3909467560      1.7742858130     -0.0111620226
 C      3.3930434792      1.4804626500      0.8342147709
 C      3.7963962827      0.1220065257      1.3812387697
 C      2.6957827777     -0.9362203829      1.5651908125
 C      3.7473043065     -1.0688204486      0.4608498383
 C      3.4414841148     -1.1052035703     -0.9705796286
 C      2.4961451510     -0.3581708157     -1.5212361593
 C      1.2486848840     -0.7924846110      1.3062622686
 C      0.7401672260     -0.1724800660      0.2686152817
 C     -0.7314138101     -0.0316662538      0.1244376094
 C     -1.2812263737     -0.4166104592     -1.1736362735
 C     -2.4418492483      0.2898872238     -1.8295269494
 C     -3.2510215989      1.4071450232     -1.2028229840
 C     -3.4557473492      1.5174253850      0.1425945378
 C     -3.0026194805      0.4867307977      1.1625081618
 C     -1.4904505152      0.3734040820      1.1934029809
 C     -3.6878921243     -0.8182956986      0.8578018314
 C     -3.4753703528     -1.5034055508     -0.2117931003
 C     -2.5882928491     -1.1596226313     -1.3784514161
 H      0.8378594446      0.9838828743     -1.4457442204
 H      2.1029914193      2.7544639818     -0.3561674753
 H      3.9038240980      2.3591253550      1.2163101335
 H      4.5637627923      0.2392725699      2.1381064361
 H      2.9330086462     -1.6125930625      2.3711902470
 H      4.6293199968     -1.6055194572      0.7723720405
 H      3.9769485099     -1.7980968119     -1.5984622590
 H      2.2904734566     -0.4402201102     -2.5747120673
 H      0.5344371911     -1.2594872564      1.9715633659
 H     -0.4515293356     -0.5723448909     -1.8478982927
 H     -2.4723456835      0.4144852273     -2.8991599782
 H     -3.5205488656      2.2300469160     -1.8708599212
 H     -3.9159779026      2.4786153722      0.3524245145
 H     -3.3296066708      0.9640419803      2.1259983520
 H     -0.9864385480      0.6068103684      2.1340165776
 H     -4.3221394665     -1.2307456103      1.6581444640
 H     -4.0040369056     -2.4326557911     -0.4846716439
 H     -2.6518142359     -1.8878505746     -2.1771460273
38
# ORCA AIMD Position Step 11, t=5.50 fs, E_Pot=-772.13936233 Hartree, Unit is Angstrom
 C      1.6121285535      0.6186907491     -0.7361556051
 C      2.3906504813      1.7768534773     -0.0042773511
 C      3.3977202333      1.4794623387      0.8346322059
 C      3.8008935646      0.1190540745      1.3834069652
 C      2.6938071962     -0.9356305342      1.5636272903
 C      3.7452158592     -1.0667256025      0.4593645121
 C      3.4435531749     -1.1084079709     -0.9719638162
 C      2.5000414438     -0.3612027146     -1.5204622260
 C      1.2459799153     -0.7933669218      1.3070689215
 C      0.7419489937     -0.1792304834      0.2652109178
 C     -0.7297453584     -0.0342203597      0.1232996698
 C     -1.2796393069     -0.4200228876     -1.1730813767
 C     -2.4383554191      0.2875811644     -1.8283862282
 C     -3.2536253917      1.4044740379     -1.2036304303
 C     -3.4538102318      1.5151762523      0.1413509669
 C     -3.0004166102      0.4854290889      1.1638988991
 C     -1.4866325600      0.3702880081      1.1930305060
 C     -3.6901988092     -0.8164159678      0.8580432615
 C     -3.4752383617     -1.5024073602     -0.2133826423
 C     -2.5859088740     -1.1621904753     -1.3796300163
 H      0.8465680800      0.9707691514     -1.4359523093
 H      2.0969717311      2.7603389030     -0.3516575383
 H      3.9056100967      2.3532853158      1.2130390528
 H      4.5618577176      0.2361425418      2.1356760122
 H      2.9306190245     -1.6151318332      2.3594355396
 H      4.6352566305     -1.6002331619      0.7754746646
 H      3.9763505156     -1.8071511752     -1.5988820695
 H      2.2890223015     -0.4455193162     -2.5787630873
 H      0.5326558718     -1.2540853222      1.9685861234
 H     -0.4432153111     -0.5667255138     -1.8506337078
 H     -2.4734456983      0.4109360790     -2.9006197814
 H     -3.5130315535      2.2222930078     -1.8647786203
 H     -3.9065464826      2.4836289944      0.3484710404
 H     -3.3204804873      0.9590448472      2.1071538992
 H     -0.9900562082      0.5959206439      2.1238871082
 H     -4.3103406072     -1.2226030515      1.6424410212
 H     -4.0001540962     -2.4106687762     -0.4878068572
 H     -2.6557192298     -1.8846832853     -2.1712328510
38
# ORCA AIMD Position Step 12, t=6.00 fs, E_Pot=-772.13470423 Hartree, Unit is Angstrom
 C      1.6154406403      0.6166434658     -0.7349870494
 C      2.3902550458      1.7789505975      0.0024579044
 C      3.4023135137      1.4784298776      0.8351047086
 C      3.8049840558      0.1166229300      1.3852911082
 C      2.6919279747     -0.9351085756      1.5620650491
 C      3.7433420017     -1.0646837556      0.4579930307
 C      3.4456443104     -1.1115734020     -0.9732781570
 C      2.5038356264     -0.3640746079     -1.5196280139
 C      1.2435239356     -0.7943525418      1.3079986066
 C      0.7436414418     -0.1857078629      0.2615465527
 C     -0.7282073467     -0.0367830164      0.1225345293
 C     -1.2779465417     -0.4233534843     -1.1726734881
 C     -2.4352245570      0.2854637823     -1.8271807603
 C     -3.2559411486      1.4014728650     -1.2041413126
 C     -3.4517667641      1.5129727639      0.1395543154
 C     -2.9982043937      0.4843845272      1.1652668270
 C     -1.4826855935      0.3670062941      1.1923507965
 C     -3.6925331516     -0.8142804059      0.8588040693
 C     -3.4749001873     -1.5016553097     -0.2157499784
 C     -2.5835594207     -1.1646736232     -1.3805560812
 H      0.8568059131      0.9590976386     -1.4260830357
 H      2.0918089707      2.7667562373     -0.3461821952
 H      3.9083913274      2.3473385057      1.2106559144
 H      4.5605483232      0.2315986479      2.1333223204
 H      2.9279566288     -1.6180995018      2.3486125321
 H      4.6403363109     -1.5973021752      0.7778053432
 H      3.9763382093     -1.8166835279     -1.5991608586
 H      2.2875961310     -0.4509983602     -2.5831671855
 H      0.5311966394     -1.2494121257      1.9665794370
 H     -0.4357402878     -0.5625547728     -1.8542193013
 H     -2.4729732206      0.4067702806     -2.9026311166
 H     -3.5058869752      2.2143221810     -1.8585947029
 H     -3.8972972744      2.4879073061      0.3468207322
 H     -3.3110923440      0.9519178381      2.0880372733
 H     -0.9933964916      0.5852368103      2.1138451523
 H     -4.2992729460     -1.2144351535      1.6265520909
 H     -3.9968897874     -2.3887740827     -0.4891256932
 H     -2.6589657386     -1.8818550265     -2.1658212271
38
# ORCA AIMD Position Step 13, t=6.50 fs, E_Pot=-772.12870510 Hartree, Unit is Angstrom
 C      1.6188438306      0.6144044726     -0.7336399453
 C      2.3897507216      1.7805855675      0.0090318997
 C      3.4068056887      1.4773360590      0.8356282950
 C      3.8086147442      0.1147273476      1.3868433878
 C      2.6901439290     -0.9346415140      1.5604821248
 C      3.7417299224     -1.0627252314      0.4567526162
 C      3.4477811081     -1.1147215803     -0.9745260675
 C      2.5075094914     -0.3667789931     -1.5187843701
 C      1.2413480248     -0.7954294024      1.3090292244
 C      0.7452426403     -0.1919098872      0.2576235787