60
# ORCA AIMD Force Step 0, t=0.00 fs, E_Pot=-1207.45411819 Hartree, Unit is Hartree/Angstrom
 C      0.0000000000      0.0000000000      0.0000000000
 C      0.0000000000      0.0000000000      0.0000000000
 O      0.0000000000      0.0000000000      0.0000000000
 C      0.0000000000      0.0000000000      0.0000000000
 C      0.0000000000      0.0000000000      0.0000000000
 C      0.0000000000      0.0000000000      0.0000000000
 C      0.0000000000      0.0000000000      0.0000000000
 O      0.0000000000      0.0000000000      0.0000000000
 B      0.0000000000      0.0000000000      0.0000000000
 C      0.0000000000      0.0000000000      0.0000000000
 C      0.0000000000      0.0000000000      0.0000000000
 C      0.0000000000      0.0000000000      0.0000000000
 H      0.0000000000      0.0000000000      0.0000000000
 C      0.0000000000      0.0000000000      0.0000000000
 H      0.0000000000      0.0000000000      0.0000000000
 C      0.0000000000      0.0000000000      0.0000000000
 B      0.0000000000      0.0000000000      0.0000000000
 O      0.0000000000      0.0000000000      0.0000000000
 C      0.0000000000      0.0000000000      0.0000000000
 C      0.0000000000      0.0000000000      0.0000000000
 C      0.0000000000      0.0000000000      0.0000000000
 C      0.0000000000      0.0000000000      0.0000000000
 C      0.0000000000      0.0000000000      0.0000000000
 C      0.0000000000      0.0000000000      0.0000000000
 O      0.0000000000      0.0000000000      0.0000000000
 C      0.0000000000      0.0000000000      0.0000000000
 C      0.0000000000      0.0000000000      0.0000000000
 H      0.0000000000      0.0000000000      0.0000000000
 C      0.0000000000      0.0000000000      0.0000000000
 C      0.0000000000      0.0000000000      0.0000000000
 C      0.0000000000      0.0000000000      0.0000000000
 H      0.0000000000      0.0000000000      0.0000000000
 H      0.0000000000      0.0000000000      0.0000000000
 H      0.0000000000      0.0000000000      0.0000000000
 H      0.0000000000      0.0000000000      0.0000000000
 H      0.0000000000      0.0000000000      0.0000000000
 H      0.0000000000      0.0000000000      0.0000000000
 H      0.0000000000      0.0000000000      0.0000000000
 H      0.0000000000      0.0000000000      0.0000000000
 H      0.0000000000      0.0000000000      0.0000000000
 H      0.0000000000      0.0000000000      0.0000000000
 H      0.0000000000      0.0000000000      0.0000000000
 H      0.0000000000      0.0000000000      0.0000000000
 H      0.0000000000      0.0000000000      0.0000000000
 H      0.0000000000      0.0000000000      0.0000000000
 H      0.0000000000      0.0000000000      0.0000000000
 H      0.0000000000      0.0000000000      0.0000000000
 H      0.0000000000      0.0000000000      0.0000000000
 H      0.0000000000      0.0000000000      0.0000000000
 H      0.0000000000      0.0000000000      0.0000000000
 H      0.0000000000      0.0000000000      0.0000000000
 H      0.0000000000      0.0000000000      0.0000000000
 H      0.0000000000      0.0000000000      0.0000000000
 H      0.0000000000      0.0000000000      0.0000000000
 H      0.0000000000      0.0000000000      0.0000000000
 H      0.0000000000      0.0000000000      0.0000000000
 H      0.0000000000      0.0000000000      0.0000000000
 H      0.0000000000      0.0000000000      0.0000000000
 H      0.0000000000      0.0000000000      0.0000000000
 H      0.0000000000      0.0000000000      0.0000000000
60
# ORCA AIMD Force Step 1, t=0.50 fs, E_Pot=-1207.45053753 Hartree, Unit is Hartree/Angstrom
 C     -0.0082035407      0.0230207307      0.0134926192
 C      0.0005684892     -0.0109433748     -0.0093135736
 O      0.0091099637     -0.0072933906      0.0037025872
 C     -0.0301511503      0.0014183859     -0.0272659037
 C      0.0009306659     -0.0009279783      0.0062384507
 C     -0.0092031213     -0.0119192088      0.0051561079
 C     -0.0227288726      0.0198322005     -0.0085736163
 O     -0.0240149449      0.0074096436     -0.0145020556
 B      0.0165715845     -0.0146515340     -0.0044501218
 C      0.0146426761      0.0191258778      0.0250983411
 C     -0.0174887996     -0.0050121871     -0.0128735288
 C      0.0109883047      0.0073482264      0.0096987275
 H     -0.0350371566      0.0014642583     -0.0182285163
 C      0.0224921673      0.0071225440      0.0166038488
 H     -0.0086153712     -0.0064731407     -0.0363499450
 C     -0.0114058330     -0.0044061885     -0.0229738752
 B     -0.0075490389     -0.0034189312      0.0030780886
 O     -0.0171608905     -0.0119278657      0.0047568055
 C      0.0027453557     -0.0132127828     -0.0187055259
 C     -0.0026971369     -0.0081241720      0.0089982393
 C      0.0168311163     -0.0088665964      0.0041304391
 C      0.0120987285      0.0081408777     -0.0020193947
 C     -0.0016040688     -0.0033899434     -0.0088330853
 C     -0.0114589369     -0.0127294933     -0.0148587891
 O      0.0071358099      0.0102951979      0.0207082602
 C     -0.0026901978     -0.0030742152      0.0171350104
 C      0.0051669763      0.0023029098      0.0022706626
 H      0.0081049568      0.0054316235      0.0090137216
 C      0.0212402404      0.0250612785      0.0112601265
 C     -0.0253125916     -0.0177492136     -0.0261046559
 C      0.0121341626      0.0025104037      0.0109036206
 H     -0.0166358998     -0.0242215431     -0.0093212473
 H      0.0126633570     -0.0020294027      0.0054196416
 H      0.0049047827     -0.0111088994     -0.0043525038
 H     -0.0027797307     -0.0084456404      0.0043724533
 H      0.0326193371     -0.0060651625     -0.0026500195
 H      0.0067756120     -0.0017838632      0.0135681557
 H      0.0003370172      0.0238269868      0.0098275564
 H     -0.0003959478      0.0126073256      0.0160056715
 H      0.0036444655      0.0101427255     -0.0206456933
 H     -0.0010946559      0.0044866292     -0.0029481353
 H     -0.0001114205      0.0115401896      0.0176383295
 H     -0.0057301413      0.0002937988     -0.0027676356
 H      0.0181735767     -0.0359461953      0.0045079412
 H     -0.0153372098      0.0092213996      0.0002553532
 H     -0.0060975410     -0.0024725997     -0.0056260399
 H      0.0093648766      0.0050517904     -0.0102298260
 H     -0.0008567482      0.0006212459     -0.0009768057
 H     -0.0338901513     -0.0056280730     -0.0092745467
 H     -0.0057844280      0.0201497488      0.0186663121
 H      0.0143803669      0.0147827431     -0.0189133670
 H      0.0066549064      0.0011951367     -0.0083994013
 H      0.0150323714      0.0039516413      0.0131808663
 H     -0.0105218137     -0.0151847694      0.0049253831
 H      0.0073174717      0.0005508191     -0.0119412141
 H     -0.0146512211      0.0207106069      0.0047269472
 H      0.0250743894      0.0015890999      0.0167890946
 H      0.0235480827      0.0108224671      0.0021083462
 H      0.0104152652     -0.0097859074      0.0219242843
 H     -0.0033113465     -0.0230737698      0.0057820765
60
# ORCA AIMD Force Step 2, t=1.00 fs, E_Pot=-1207.44158413 Hartree, Unit is Hartree/Angstrom
 C     -0.0154498792      0.0470753506      0.0347890693
 C     -0.0018624463     -0.0260643213     -0.0222820505
 O      0.0003476101     -0.0017813854      0.0042873069
 C     -0.0548727541      0.0067618697     -0.0614424353
 C      0.0059916553     -0.0051917187      0.0099116721
 C     -0.0215037550     -0.0172904619      0.0075875515
 C     -0.0485054778      0.0321670182     -0.0129759163
 O     -0.0310829808      0.0134651725     -0.0141517284
 B      0.0314694065     -0.0227592854     -0.0033529665
 C      0.0100573580      0.0296456749      0.0297106747
 C     -0.0195527926     -0.0014398803     -0.0082055942
 C      0.0176430342      0.0083872971      0.0112920616
 H     -0.0473215220      0.0027936216     -0.0233619651
 C      0.0357743073      0.0103094522      0.0289395775
 H     -0.0117719689     -0.0080464478     -0.0477131813
 C     -0.0156646087     -0.0029464047     -0.0178033408
 B     -0.0101496808     -0.0049034373     -0.0012012728
 O     -0.0166631387     -0.0110058616      0.0133719872
 C      0.0058174153     -0.0270362730     -0.0316595310
 C     -0.0050078024     -0.0217388597      0.0130562701
 C      0.0281888675     -0.0120675921      0.0065300749
 C      0.0186930624      0.0151501860     -0.0020387625
 C      0.0003793011     -0.0120047434     -0.0156446270
 C     -0.0184158615     -0.0185127594     -0.0293369899
 O      0.0064217411      0.0101841606      0.0239285497
 C     -0.0084086692     -0.0097436190      0.0091613914
 C      0.0129832047      0.0063611376      0.0080133530
 H      0.0040794740      0.0036457728      0.0040841597
 C      0.0286871464      0.0298882307      0.0127385334
 C     -0.0348163959     -0.0255757547     -0.0342223944
 C      0.0185307141      0.0064685335      0.0134504580
 H     -0.0198647569     -0.0305444395     -0.0083793357
 H      0.0054725279     -0.0023796191      0.0083597979
 H      0.0163757188     -0.0406730613     -0.0202658537
 H      0.0014815057     -0.0006039023     -0.0010586521
 H      0.0430304734     -0.0072772699     -0.0050499938
 H      0.0194772990     -0.0055351660      0.0495495720
 H      0.0024190850      0.0285097955      0.0115684700
 H     -0.0039521101      0.0131459356      0.0161846776
 H     -0.0004716869      0.0107246359     -0.0241427065
 H      0.0181295258      0.0087759486     -0.0019816799
 H      0.0006994203      0.0132386317      0.0171122430
 H      0.0083246248      0.0030454857      0.0008537632
 H      0.0283487200     -0.0497671025      0.0046171730
 H     -0.0129670187      0.0059071246     -0.0016782441
 H      0.0051692524     -0.0016182874     -0.0009509441
 H      0.0054722911      0.0033939899     -0.0070027565
 H     -0.0077602087      0.0206075976     -0.0073512252
 H     -0.0465192254     -0.0066549801     -0.0107901708
 H     -0.0089743455      0.0261246589      0.0213308015
 H      0.0183980099      0.0192638173     -0.0219803200
 H      0.0030864455      0.0055401528      0.0003014559
 H      0.0156752888      0.0056068694      0.0114409391
 H     -0.0112322156     -0.0129531734      0.0053295112
 H      0.0078482929      0.0012445868     -0.0049508718
 H     -0.0182492465      0.0234606655      0.0067678175
 H      0.0324075807      0.0002216590      0.0206498563
 H      0.0258771700      0.0119330172      0.0045033298
 H      0.0106481921     -0.0103839582      0.0246858569
 H     -0.0032144934     -0.0244252876      0.0057293134
60
# ORCA AIMD Force Step 3, t=1.50 fs, E_Pot=-1207.42898985 Hartree, Unit is Hartree/Angstrom
 C     -0.0228024208      0.0704686143      0.0566045296
 C     -0.0038632086     -0.0413056717     -0.0346399867
 O     -0.0085446481      0.0040872660      0.0048278768
 C     -0.0757481929      0.0131882012     -0.0947035869
 C      0.0108975557     -0.0094895136      0.0130867943
 C     -0.0328005210     -0.0209865983      0.0090623951
 C     -0.0724920815      0.0409914966     -0.0157317975
 O     -0.0372726861      0.0189421213     -0.0136753530
 B      0.0453927232     -0.0297650750     -0.0018159446
 C      0.0049052565      0.0396070167      0.0336519232
 C     -0.0224045844      0.0028624781     -0.0033006299
 C      0.0209324517      0.0094739608      0.0111678611
 H     -0.0560157161      0.0041097371     -0.0264482914
 C      0.0480241403      0.0126619905      0.0375013503
 H     -0.0139216621     -0.0087889036     -0.0552984441
 C     -0.0196682937     -0.0015144968     -0.0123618981
 B     -0.0127070112     -0.0063933633     -0.0053203808
 O     -0.0160286022     -0.0098987889      0.0218354622
 C      0.0089422486     -0.0412410266     -0.0447771830
 C     -0.0067460681     -0.0348396737      0.0159864448
 C      0.0372602543     -0.0138125882      0.0078913688
 C      0.0251979678      0.0219218881     -0.0019252837
 C      0.0028579859     -0.0210716038     -0.0214370363
 C     -0.0237904430     -0.0223126660     -0.0422734153
 O      0.0056624674      0.0100381900      0.0269257671
 C     -0.0125046082     -0.0155718636      0.0005670927
 C      0.0213013291      0.0108595733      0.0143145035
 H     -0.0003019682      0.0015946954     -0.0012179810
 C      0.0360983628      0.0331192621      0.0150855013
 C     -0.0438365005     -0.0344217036     -0.0411228303
 C      0.0232486646      0.0085103017      0.0147019590
 H     -0.0215588822     -0.0348130684     -0.0063276151
 H     -0.0023725403     -0.0025391864      0.0108432057
 H      0.0279935583     -0.0704278960     -0.0363603623
 H      0.0061962518      0.0078774952     -0.0066799784
 H      0.0498746278     -0.0076503073     -0.0074458297
 H      0.0316495850     -0.0094391062      0.0853120796
 H      0.0046820244      0.0312545810      0.0124602509
 H     -0.0074473404      0.0129593076      0.0153040548
 H     -0.0052712724      0.0104353141     -0.0259846994
 H      0.0370014717      0.0128546227     -0.0006116385
 H      0.0015014481      0.0140935415      0.0154270754
 H      0.0223894410      0.0057150525      0.0046953035
 H      0.0368001330     -0.0592115585      0.0040227809
 H     -0.0093705669      0.0018893127     -0.0036476031
 H      0.0170592399     -0.0004981712      0.0042644891
 H      0.0006829527      0.0011371157     -0.0028238083
 H     -0.0150412003      0.0407766604     -0.0136591348
 H     -0.0560096929     -0.0068364585     -0.0112120047
 H     -0.0118584210      0.0306734498      0.0224249725
 H      0.0212350769      0.0227905548     -0.0235838611
 H     -0.0007091187      0.0096714823      0.0093848574
 H      0.0151952921      0.0069396972      0.0086314059
 H     -0.0111520908     -0.0096011596      0.0053936549
 H      0.0080173230      0.0018544379      0.0025060215
 H     -0.0206354896      0.0245758809      0.0085599616
 H      0.0373366158     -0.0013656582      0.0227795384
 H      0.0264165428      0.0122418891      0.0068532464
 H      0.0101845306     -0.0102691283      0.0260209766
 H     -0.0028994779     -0.0240415242      0.0051961415
60
# ORCA AIMD Force Step 4, t=2.00 fs, E_Pot=-1207.41544684 Hartree, Unit is Hartree/Angstrom
 C     -0.0287339407      0.0889819881      0.0749124671
 C     -0.0054261998     -0.0570552768     -0.0469030100
 O     -0.0177156895      0.0105924723      0.0055111909
 C     -0.0912324265      0.0202947544     -0.1201492335
 C      0.0159324938     -0.0137983236      0.0163133410
 C     -0.0409473010     -0.0230639003      0.0099642799
 C     -0.0931140651      0.0468736550     -0.0164151520
 O     -0.0429768360      0.0240109023     -0.0132546408
 B      0.0588085677     -0.0362853320     -0.0000962613
 C     -0.0000732371      0.0492997578      0.0374448468
 C     -0.0254195724      0.0075221533      0.0019051326
 C      0.0208570612      0.0103422482      0.0088935900
 H     -0.0610860011      0.0053781456     -0.0275233126
 C      0.0587026736      0.0140785279      0.0423641331
 H     -0.0150395762     -0.0087407314     -0.0590712914
 C     -0.0232782010      0.0000216307     -0.0066647010
 B     -0.0150504936     -0.0077809179     -0.0096709120
 O     -0.0151991599     -0.0087357963      0.0301403229
 C      0.0119000502     -0.0549747289     -0.0576798424
 C     -0.0081813851     -0.0447009008      0.0181966967
 C      0.0439197334     -0.0136468335      0.0082157466
 C      0.0314885067      0.0284796864     -0.0017560960
 C      0.0052931339     -0.0302384919     -0.0255383689
 C     -0.0277938319     -0.0241392204     -0.0530767231
 O      0.0048265422      0.0098068921      0.0296961330
 C     -0.0148036430     -0.0205069976     -0.0079669530
 C      0.0294306250      0.0155327687      0.0206290921
 H     -0.0047728083     -0.0005154510     -0.0065751763
 C      0.0433981206      0.0347186609      0.0182865274
 C     -0.0519046006     -0.0440000700     -0.0463352593
 C      0.0262227382      0.0086644673      0.0145696554
 H     -0.0217247371     -0.0369673515     -0.0032768212
 H     -0.0097573352     -0.0026424546      0.0129138496
 H      0.0376932961     -0.0947435422     -0.0493634994
 H      0.0107321222      0.0157194469     -0.0118666819
 H      0.0533239319     -0.0072750541     -0.0096983474
 H      0.0414630519     -0.0129794467      0.1139944884
 H      0.0071035952      0.0320181896      0.0124629677
 H     -0.0107712295      0.0121798913      0.0135296082
 H     -0.0105018951      0.0094076299     -0.0263230803
 H      0.0530068021      0.0166425538      0.0006875348
 H      0.0023023131      0.0140124340      0.0125460328
 H      0.0349209577      0.0080685822      0.0082507517
 H      0.0434629422     -0.0644677156      0.0028043065
 H     -0.0053553634     -0.0023182011     -0.0055862340
 H      0.0278934097      0.0006930908      0.0090520101
 H     -0.0042347657     -0.0012682569      0.0015509207
 H     -0.0214575042      0.0578097526     -0.0188078492
 H     -0.0618706324     -0.0061673273     -0.0104416075
 H     -0.0143225050      0.0333373215      0.0215012855
 H      0.0225608825      0.0250404358     -0.0233329415
 H     -0.0042083896      0.0134379736      0.0178652539
 H      0.0137572630      0.0079588803      0.0049932835
 H     -0.0103961774     -0.0053949447      0.0051771123
 H      0.0080119932      0.0023942187      0.0099013431
 H     -0.0217106602      0.0239257169      0.0100267117
 H      0.0397942413     -0.0031012200      0.0231992271
 H      0.0249644667      0.0116443980      0.0090656914
 H      0.0088821285     -0.0093337459      0.0256042711
 H     -0.0024054613     -0.0220327105      0.0041737424
60
# ORCA AIMD Force Step 5, t=2.50 fs, E_Pot=-1207.40397153 Hartree, Unit is Hartree/Angstrom
 C     -0.0313147649      0.0980261575      0.0861983765
 C     -0.0064790492     -0.0729520976     -0.0587155112
 O     -0.0270147498      0.0175508127      0.0063159824
 C     -0.0995774579      0.0276502523     -0.1308407717
 C      0.0209386583     -0.0181653015      0.0193751522
 C     -0.0439978405     -0.0235527277      0.0108025537
 C     -0.1085205730      0.0503156158     -0.0146128705
 O     -0.0480881237      0.0286440146     -0.0128197554
 B      0.0714376261     -0.0420617079      0.0018865533
 C     -0.0050687030      0.0585122823      0.0408245574
 C     -0.0284044735      0.0123180142      0.0072972589
 C      0.0174657266      0.0111959034      0.0047679538
 H     -0.0625854901      0.0065720988     -0.0266808719
 C      0.0678625668      0.0145961653      0.0435143710
 H     -0.0151015722     -0.0079468206     -0.0590657342
 C     -0.0264522136      0.0016657435     -0.0008585753
 B     -0.0172029881     -0.0090533657     -0.0140162091
 O     -0.0142201965     -0.0075327161      0.0381980251
 C      0.0147346967     -0.0683473202     -0.0703724363
 C     -0.0095910073     -0.0488503715      0.0195494665
 C      0.0482317299     -0.0114582647      0.0076024466
 C      0.0375923266      0.0346920572     -0.0014700249
 C      0.0073025382     -0.0392084627     -0.0273025925
 C     -0.0306276357     -0.0239719898     -0.0610983575
 O      0.0039101809      0.0095174991      0.0322205795
 C     -0.0153133916     -0.0245739621     -0.0164087502
 C      0.0370178755      0.0201596177      0.0264729104
 H     -0.0088522948     -0.0024354947     -0.0114837757
 C      0.0505319821      0.0347237602      0.0223175973
 C     -0.0590754057     -0.0542507312     -0.0499684970
 C      0.0274165497      0.0067931431      0.0131335186
 H     -0.0203283273     -0.0369454865      0.0006983255
 H     -0.0162845580     -0.0027508137      0.0146017259
 H      0.0434681105     -0.1083854394     -0.0562221009
 H      0.0147373947      0.0222771088     -0.0163069415
 H      0.0534273660     -0.0061715889     -0.0117050825
 H      0.0471697496     -0.0155614721      0.1286477728
 H      0.0096288857      0.0306452346      0.0114494251
 H     -0.0138406265      0.0108423474      0.0109113876
 H     -0.0159991989      0.0076515722     -0.0251479998
 H      0.0640292998      0.0200428799      0.0013984058
 H      0.0030812355      0.0130478654      0.0086163117
 H      0.0441901061      0.0099015065      0.0108510293
 H      0.0482706597     -0.0658614655      0.0010625183
 H     -0.0011035906     -0.0065476128     -0.0074395345
 H      0.0367714570      0.0018297894      0.0128955176
 H     -0.0091096246     -0.0037119373      0.0059876829
 H     -0.0259876495      0.0692696509     -0.0219894238
 H     -0.0642912067     -0.0047747547     -0.0086166161
 H     -0.0163534910      0.0341915652      0.0186846500
 H      0.0224262309      0.0260339032     -0.0213576767
 H     -0.0070101924      0.0167621823      0.0249444735
 H      0.0113966853      0.0086473410      0.0006328299
 H     -0.0090375079     -0.0004984357      0.0046948838
 H      0.0080461960      0.0028542486      0.0166351652
 H     -0.0214361830      0.0214990537      0.0110791620
 H      0.0397462370     -0.0049181563      0.0219426807
 H      0.0215683019      0.0101856003      0.0110734899
 H      0.0068526049     -0.0076520691      0.0235556940
 H     -0.0017525273     -0.0185115123      0.0027107103
60
# ORCA AIMD Force Step 6, t=3.00 fs, E_Pot=-1207.39667761 Hartree, Unit is Hartree/Angstrom
 C     -0.0292354027      0.0948038834      0.0878003249
 C     -0.0070412693     -0.0886682254     -0.0698808155
 O     -0.0363035761      0.0248080997      0.0072210138
 C     -0.0998630844      0.0347485007     -0.1225117271
 C      0.0258650195     -0.0225914703      0.0222601269
 C     -0.0405566737     -0.0226113634      0.0120662461
 C     -0.1171011151      0.0515757913     -0.0099911010
 O     -0.0525874582      0.0328192284     -0.0123798539
 B      0.0831475888     -0.0470364046      0.0041230679
 C     -0.0099835643      0.0671244053      0.0437663494
 C     -0.0309362482      0.0169283958      0.0127561504
 C      0.0108119877      0.0119818012     -0.0011750420
 H     -0.0604521320      0.0076645297     -0.0239461614
 C      0.0752984170      0.0141987015      0.0409630781
 H     -0.0140638714     -0.0064341960     -0.0552287878
 C     -0.0291627305      0.0033628235      0.0048681148
 B     -0.0191218671     -0.0101825620     -0.0182866123
 O     -0.0130991372     -0.0063187892      0.0458952061
 C      0.0173918542     -0.0811253064     -0.0826251652
 C     -0.0112294499     -0.0453901351      0.0202623940
 C      0.0501399288     -0.0071303047      0.0061047701
 C      0.0434318361      0.0404684099     -0.0010541610
 C      0.0085049953     -0.0476158430     -0.0262300177
 C     -0.0324715313     -0.0218947222     -0.0656885876
 O      0.0029206527      0.0091599746      0.0344738243
 C     -0.0141106581     -0.0277594766     -0.0245080208
 C      0.0435426364      0.0244458799      0.0313420065
 H     -0.0120765302     -0.0039065883     -0.0154606787
 C      0.0573712514      0.0332217306      0.0270451587
 C     -0.0652626248     -0.0648909509     -0.0520727090
 C      0.0267970398      0.0029431866      0.0104557439
 H     -0.0173671837     -0.0347141246      0.0054955004
 H     -0.0213947775     -0.0029472951      0.0159873361
 H      0.0438618842     -0.1077630708     -0.0548247458
 H      0.0177660651      0.0267778760     -0.0196377375
 H      0.0502419822     -0.0043693458     -0.0133517618
 H      0.0478320205     -0.0166821757      0.1249548247
 H      0.0121919269      0.0271205119      0.0093614491
 H     -0.0165631169      0.0090621683      0.0076053465
 H     -0.0215391020      0.0052569726     -0.0225799495
 H      0.0684032178      0.0229889486      0.0010138536
 H      0.0038252987      0.0112842707      0.0038403934
 H      0.0487211657      0.0110354262      0.0118830821
 H      0.0511243566     -0.0635478359     -0.0011407639
 H      0.0029294544     -0.0104699650     -0.0091454276
 H      0.0426534297      0.0027352189      0.0151682579
 H     -0.0135644350     -0.0059598171      0.0101386790
 H     -0.0276662442      0.0730783082     -0.0225475111
 H     -0.0632301818     -0.0027403687     -0.0057853007
 H     -0.0179087733      0.0331940726      0.0139772554
 H      0.0208071378      0.0257243566     -0.0176917615
 H     -0.0087042206      0.0195911711      0.0298103339
 H      0.0082666101      0.0090193547     -0.0042245200
 H     -0.0072431450      0.0047754735      0.0040080912
 H      0.0083487048      0.0032416822      0.0220956167
 H     -0.0198190462      0.0173312523      0.0116336593
 H      0.0371702128     -0.0067400702      0.0190607180
 H      0.0163588880      0.0079524940      0.0128054723
 H      0.0041976487     -0.0053026868      0.0199864668
 H     -0.0009771908     -0.0137092866      0.0008833781
60
# ORCA AIMD Force Step 7, t=3.50 fs, E_Pot=-1207.39375122 Hartree, Unit is Hartree/Angstrom
 C     -0.0224800187      0.0800958147      0.0793578715
 C     -0.0071315792     -0.1038666931     -0.0802055791
 O     -0.0454137364      0.0321690380      0.0081997174
 C     -0.0924415456      0.0413173782     -0.0961573563
 C      0.0306192671     -0.0270426089      0.0249451920
 C     -0.0303238815     -0.0204907992      0.0140964390
 C     -0.1178742865      0.0506021940     -0.0024919189
 O     -0.0564747957      0.0365372642     -0.0119327973
 B      0.0938084552     -0.0511801299      0.0065764472
 C     -0.0147751478      0.0750108398      0.0461985993
 C     -0.0325752248      0.0210489019      0.0181947634
 C      0.0008427792      0.0127402566     -0.0088773850
 H     -0.0545825219      0.0086222034     -0.0193260644
 C      0.0808716670      0.0128718650      0.0346202353
 H     -0.0118865786     -0.0042293068     -0.0474751035
 C     -0.0313593366      0.0050900437      0.0103616523
 B     -0.0207729609     -0.0111373435     -0.0223639362
 O     -0.0118687422     -0.0051322397      0.0531094692
 C      0.0198382747     -0.0930967661     -0.0942301766
 C     -0.0131996014     -0.0338491482      0.0208916906
 C      0.0495351452     -0.0006926046      0.0037590709
 C      0.0489520096      0.0456861895     -0.0005024638
 C      0.0086327235     -0.0551149080     -0.0221303152
 C     -0.0334487284     -0.0180885584     -0.0663426352
 O      0.0018599827      0.0087390634      0.0364370670
 C     -0.0113787347     -0.0301131396     -0.0320543291
 C      0.0485418700      0.0281158738      0.0347677838
 H     -0.0140137794     -0.0046881106     -0.0180716259
 C      0.0637515799      0.0303487750      0.0322406610
 C     -0.0703733756     -0.0755244184     -0.0527337309
 C      0.0244138813     -0.0028323383      0.0066721353
 H     -0.0129098509     -0.0303305870      0.0109683984
 H     -0.0245875186     -0.0033160678      0.0171902182
 H      0.0387578178     -0.0929752836     -0.0452523908
 H      0.0193881152      0.0285677287     -0.0215705913
 H      0.0438137810     -0.0018998927     -0.0145009969
 H      0.0438164964     -0.0161484397      0.1037227091
 H      0.0147266583      0.0215358835      0.0062265633
 H     -0.0188598817      0.0069863278      0.0038092615
 H     -0.0268754589      0.0023583853     -0.0188185287
 H      0.0655519354      0.0254111460     -0.0007836221
 H      0.0045336815      0.0088637324     -0.0014948540
 H      0.0477154881      0.0113668867      0.0109507470
 H      0.0518690731     -0.0575126036     -0.0037630527
 H      0.0062914998     -0.0137800590     -0.0106548301
 H      0.0447896318      0.0032377562      0.0153948606
 H     -0.0171957364     -0.0077423103      0.0136275576
 H     -0.0260011645      0.0685399456     -0.0203002267
 H     -0.0586322205     -0.0001385143     -0.0019927642
 H     -0.0189710150      0.0304006820      0.0074800461
 H      0.0177358269      0.0241254867     -0.0124554243
 H     -0.0090211636      0.0219180662      0.0318897681
 H      0.0045830846      0.0091127419     -0.0092988435
 H     -0.0052191878      0.0100696269      0.0031992484
 H      0.0091229611      0.0035843031      0.0257598531
 H     -0.0169265131      0.0115555424      0.0116388627
 H      0.0320730560     -0.0084907276      0.0146285563
 H      0.0095583899      0.0050670897      0.0142029147
 H      0.0010583273     -0.0024130027      0.0151131156
 H     -0.0001285613     -0.0079731049     -0.0012018874
60
# ORCA AIMD Force Step 8, t=4.00 fs, E_Pot=-1207.39339263 Hartree, Unit is Hartree/Angstrom
 C     -0.0123400143      0.0580753679      0.0628478636
 C     -0.0067529648     -0.1184273314     -0.0897061424
 O     -0.0542523365      0.0395194669      0.0093056880
 C     -0.0787323714      0.0473529705     -0.0575269865
 C      0.0351309350     -0.0315412500      0.0273894698
 C     -0.0141737858     -0.0174849170      0.0170145881
 C     -0.1107570356      0.0469482399      0.0075956173
 O     -0.0598030315      0.0398691222     -0.0114373497
 B      0.1033760717     -0.0545202440      0.0091557645
 C     -0.0194398834      0.0821823798      0.0480757399
 C     -0.0329345462      0.0243946449      0.0235979528
 C     -0.0126125285      0.0136307990     -0.0183028390
 H     -0.0448696852      0.0094097209     -0.0128202969
 C      0.0845263855      0.0105638931      0.0243412802
 H     -0.0085484910     -0.0013579599     -0.0357186038
 C     -0.0330114375      0.0069667339      0.0155958387
 B     -0.0221370875     -0.0118615467     -0.0261842689
 O     -0.0105780857     -0.0040611257      0.0598175935
 C      0.0220276340     -0.1040824828     -0.1050662011
 C     -0.0154381080     -0.0154598687      0.0222202781
 C      0.0461941796      0.0077856355      0.0005522054
 C      0.0541971002      0.0502691102      0.0001644939
 C      0.0075888439     -0.0614147468     -0.0151944915
 C     -0.0335936485     -0.0128269607     -0.0628253467
 O      0.0007120970      0.0082923642      0.0381103303
 C     -0.0073716293     -0.0318539275     -0.0389008616
 C      0.0516813784      0.0309630682      0.0363625599
 H     -0.0143385923     -0.0045937900     -0.0190157144
 C      0.0695539874      0.0262765011      0.0376191193
 C     -0.0743060612     -0.0856336331     -0.0520380591
 C      0.0204648356     -0.0104159283      0.0019158791