38
# ORCA AIMD Force Step 0, t=0.00 fs, E_Pot=-772.17551674 Hartree, Unit is Hartree/Angstrom
 C      0.0000000000      0.0000000000      0.0000000000
 C      0.0000000000      0.0000000000      0.0000000000
 C      0.0000000000      0.0000000000      0.0000000000
 C      0.0000000000      0.0000000000      0.0000000000
 C      0.0000000000      0.0000000000      0.0000000000
 C      0.0000000000      0.0000000000      0.0000000000
 C      0.0000000000      0.0000000000      0.0000000000
 C      0.0000000000      0.0000000000      0.0000000000
 C      0.0000000000      0.0000000000      0.0000000000
 C      0.0000000000      0.0000000000      0.0000000000
 C      0.0000000000      0.0000000000      0.0000000000
 C      0.0000000000      0.0000000000      0.0000000000
 C      0.0000000000      0.0000000000      0.0000000000
 C      0.0000000000      0.0000000000      0.0000000000
 C      0.0000000000      0.0000000000      0.0000000000
 C      0.0000000000      0.0000000000      0.0000000000
 C      0.0000000000      0.0000000000      0.0000000000
 C      0.0000000000      0.0000000000      0.0000000000
 C      0.0000000000      0.0000000000      0.0000000000
 C      0.0000000000      0.0000000000      0.0000000000
 H      0.0000000000      0.0000000000      0.0000000000
 H      0.0000000000      0.0000000000      0.0000000000
 H      0.0000000000      0.0000000000      0.0000000000
 H      0.0000000000      0.0000000000      0.0000000000
 H      0.0000000000      0.0000000000      0.0000000000
 H      0.0000000000      0.0000000000      0.0000000000
 H      0.0000000000      0.0000000000      0.0000000000
 H      0.0000000000      0.0000000000      0.0000000000
 H      0.0000000000      0.0000000000      0.0000000000
 H      0.0000000000      0.0000000000      0.0000000000
 H      0.0000000000      0.0000000000      0.0000000000
 H      0.0000000000      0.0000000000      0.0000000000
 H      0.0000000000      0.0000000000      0.0000000000
 H      0.0000000000      0.0000000000      0.0000000000
 H      0.0000000000      0.0000000000      0.0000000000
 H      0.0000000000      0.0000000000      0.0000000000
 H      0.0000000000      0.0000000000      0.0000000000
 H      0.0000000000      0.0000000000      0.0000000000
38
# ORCA AIMD Force Step 1, t=0.50 fs, E_Pot=-772.17223218 Hartree, Unit is Hartree/Angstrom
 C     -0.0128725621      0.0038663164     -0.0088797673
 C      0.0140786374     -0.0124991758      0.0112963344
 C     -0.0141893841      0.0144819817     -0.0117889902
 C     -0.0005822287      0.0042621689      0.0033263063
 C      0.0138975969     -0.0080664343      0.0086558061
 C      0.0013432056      0.0027538638      0.0099777902
 C     -0.0170984922      0.0141656864     -0.0138866227
 C      0.0168116383     -0.0124121643      0.0114448290
 C     -0.0185908479      0.0061087700     -0.0122147045
 C      0.0123760006     -0.0060773213      0.0180084999
 C     -0.0202503477      0.0103726481      0.0342240748
 C     -0.0042033938     -0.0011943208     -0.0058970500
 C     -0.0046872473      0.0005629891     -0.0010724689
 C     -0.0020005874      0.0092263331      0.0206773068
 C      0.0020506102      0.0034594968     -0.0365550907
 C     -0.0051857323      0.0123308855      0.0225392545
 C      0.0325588828     -0.0060816481     -0.0089473048
 C     -0.0114295140     -0.0215289756      0.0213817784
 C     -0.0029728143     -0.0168625060     -0.0017503052
 C      0.0067792359     -0.0033983886     -0.0091284625
 H      0.0201948643     -0.0112267584      0.0196450060
 H      0.0039050512     -0.0146810600      0.0058615835
 H     -0.0134140311     -0.0227447578     -0.0105345791
 H     -0.0214674434     -0.0039638648     -0.0223210170
 H     -0.0057731874      0.0156797748     -0.0220863302
 H     -0.0127738502      0.0053547951     -0.0052290452
 H     -0.0097875103      0.0111629360      0.0106101306
 H      0.0018946693      0.0002288315      0.0145789734
 H      0.0174691813      0.0117516932     -0.0153872966
 H     -0.0124360076     -0.0010222399      0.0095790764
 H      0.0031983067     -0.0017973510      0.0197922471
 H      0.0105613777     -0.0232775504      0.0232241535
 H      0.0087325212     -0.0185960177      0.0001019674
 H      0.0105572698     -0.0198859771     -0.0344988061
 H     -0.0139217716      0.0049957195     -0.0331625208
 H      0.0077768548      0.0191462394     -0.0392659032
 H      0.0101031798      0.0340757942      0.0032241347
 H      0.0090286618      0.0213277783      0.0245703272
38
# ORCA AIMD Force Step 2, t=1.00 fs, E_Pot=-772.16683705 Hartree, Unit is Hartree/Angstrom
 C     -0.0193083563      0.0050535085     -0.0129265174
 C      0.0110342822     -0.0281152534      0.0057252827
 C     -0.0126342552      0.0188195906     -0.0073442623
 C     -0.0040770225      0.0171177052      0.0021322187
 C      0.0172189652     -0.0134160369      0.0139226358
 C      0.0006125612      0.0063861663      0.0105965608
 C     -0.0187131711      0.0169974486     -0.0113246431
 C      0.0142143402     -0.0080324633      0.0194058783
 C     -0.0167202255      0.0005839831     -0.0053062097
 C      0.0098089459      0.0022626734      0.0118991276
 C     -0.0232767678      0.0113275667      0.0435544336
 C     -0.0073883945      0.0027668114     -0.0039639116
 C     -0.0134631671      0.0064421292      0.0019576655
 C      0.0015908837      0.0099097404      0.0228231920
 C      0.0047346480      0.0027138079     -0.0511789093
 C     -0.0102715898      0.0251101625      0.0360628760
 C      0.0414321524     -0.0064111383     -0.0037107446
 C     -0.0201621181     -0.0223986912      0.0530800554
 C     -0.0033831773     -0.0382855588     -0.0250357695
 C      0.0051805897     -0.0068695711     -0.0099930425
 H      0.0286402284     -0.0121186590      0.0258924520
 H      0.0043353118     -0.0066213489      0.0057276922
 H     -0.0142503268     -0.0273314578     -0.0107822959
 H     -0.0248553216     -0.0071276663     -0.0267809835
 H     -0.0073408616      0.0178593208     -0.0238135306
 H     -0.0079080091     -0.0039931062     -0.0044167088
 H     -0.0067822260      0.0085198308      0.0090027777
 H      0.0012058254     -0.0004311104      0.0060885641
 H      0.0212575177      0.0124717040     -0.0164674428
 H     -0.0082180748     -0.0056517950      0.0022328078
 H      0.0063658656     -0.0029356113      0.0153941424
 H      0.0123754184     -0.0294747477      0.0283166942
 H      0.0061930710     -0.0165158787      0.0062170837
 H      0.0147226869     -0.0299623697     -0.0479279644
 H     -0.0193049761      0.0041520106     -0.0434125306
 H      0.0132673126      0.0261919851     -0.0535245041
 H      0.0131097024      0.0451343997      0.0083685013
 H      0.0104199399      0.0258567399      0.0296545610
38
# ORCA AIMD Force Step 3, t=1.50 fs, E_Pot=-772.16044459 Hartree, Unit is Hartree/Angstrom
 C     -0.0241942282      0.0048191470     -0.0151746839
 C      0.0082881096     -0.0441165915      0.0004762318
 C     -0.0119767047      0.0213088392     -0.0036155851
 C     -0.0093345964      0.0298096183     -0.0006702025
 C      0.0200208227     -0.0173995559      0.0172503987
 C     -0.0006974770      0.0099028784      0.0107527110
 C     -0.0204474757      0.0201687903     -0.0077259680
 C      0.0113629110     -0.0033072772      0.0277867044
 C     -0.0131592047     -0.0041450427      0.0008098981
 C      0.0069216517      0.0108375346      0.0053929208
 C     -0.0258102596      0.0119865184      0.0521154921
 C     -0.0109550193      0.0066551987     -0.0015367309
 C     -0.0220396896      0.0120504539      0.0060550775
 C      0.0062412369      0.0086337401      0.0258987097
 C      0.0075955742      0.0011482533     -0.0645611670
 C     -0.0139509066      0.0359955726      0.0451529014
 C      0.0479545119     -0.0068644606     -0.0010257129
 C     -0.0270105415     -0.0205304455      0.0804008207
 C     -0.0027764754     -0.0565743846     -0.0485257362
 C      0.0036939238     -0.0085353301     -0.0087760316
 H      0.0353931853     -0.0116793780      0.0301851206
 H      0.0044620288      0.0020722397      0.0052336953
 H     -0.0139724631     -0.0300288052     -0.0101108923
 H     -0.0264458493     -0.0101351622     -0.0293834044
 H     -0.0084956379      0.0187521779     -0.0237187759
 H     -0.0025185613     -0.0134265205     -0.0033781063
 H     -0.0032095398      0.0051982744      0.0067354503
 H      0.0003646368     -0.0011326235     -0.0031404177
 H      0.0236128110      0.0121678087     -0.0162764625
 H     -0.0035081699     -0.0101593034     -0.0054242579
 H      0.0093720871     -0.0039279963      0.0098558717
 H      0.0131111563     -0.0336058230      0.0315521703
 H      0.0033475851     -0.0135953833      0.0122647633
 H      0.0176490874     -0.0381962939     -0.0570010336
 H     -0.0229344640      0.0036711498     -0.0504396237
 H      0.0169457420      0.0309329881     -0.0633639964
 H      0.0150880541      0.0527525507      0.0135463567
 H      0.0116562841      0.0284633728      0.0325651754
38
# ORCA AIMD Force Step 4, t=2.00 fs, E_Pot=-772.15409384 Hartree, Unit is Hartree/Angstrom
 C     -0.0273624923      0.0032351010     -0.0155768886
 C      0.0057793304     -0.0596771003     -0.0045235257
 C     -0.0122826830      0.0219031180     -0.0006978293
 C     -0.0162955801      0.0420743147     -0.0051065299
 C      0.0222617588     -0.0199117271      0.0186175332
 C     -0.0019673243      0.0128224310      0.0107144835
 C     -0.0221366430      0.0234988607     -0.0033475757
 C      0.0082150848      0.0016631348      0.0357106952
 C     -0.0079561728     -0.0079185339      0.0059302879
 C      0.0037893662      0.0194646551     -0.0013174436
 C     -0.0277932709      0.0123228209      0.0597473470
 C     -0.0144367789      0.0102829444      0.0007980737
 C     -0.0302348341      0.0172810873      0.0108706150
 C      0.0118323764      0.0053726540      0.0298012329
 C      0.0104592617     -0.0009569454     -0.0764090595
 C     -0.0162691213      0.0448784146      0.0501431449
 C      0.0520348863     -0.0073935431     -0.0008753478
 C     -0.0319908784     -0.0164957992      0.1029552459
 C     -0.0011919592     -0.0712247919     -0.0713029401
 C      0.0024207065     -0.0082873157     -0.0054703558
 H      0.0402574244     -0.0099720810      0.0324272443
 H      0.0043991659      0.0106455798      0.0045674981
 H     -0.0125734955     -0.0307493208     -0.0085257900
 H     -0.0262093309     -0.0128934392     -0.0300632838
 H     -0.0091838824      0.0182709564     -0.0217830185
 H      0.0027713378     -0.0223855573     -0.0023226155
 H      0.0007165449      0.0013983505      0.0040052409
 H     -0.0005466270     -0.0018262862     -0.0122407834
 H      0.0244399077      0.0108297384     -0.0147688865
 H      0.0011479732     -0.0143034192     -0.0127801576
 H      0.0121467435     -0.0047615620      0.0035802940
 H      0.0128158562     -0.0355818048      0.0328871942
 H      0.0003901046     -0.0101113213      0.0180482241
 H      0.0194165247     -0.0445205011     -0.0620174065
 H     -0.0247799168      0.0035276008     -0.0541847773
 H      0.0189046522      0.0335398676     -0.0690114007
 H      0.0159704270      0.0568394065      0.0185200177
 H      0.0126674639      0.0290660791      0.0332208778
38
# ORCA AIMD Force Step 5, t=2.50 fs, E_Pot=-772.14858279 Hartree, Unit is Hartree/Angstrom
 C     -0.0288422674      0.0005784273     -0.0142151310
 C      0.0032814021     -0.0741622431     -0.0096531714
 C     -0.0135043695      0.0206016635      0.0015257170
 C     -0.0249420985      0.0537720516     -0.0111845675
 C      0.0238415481     -0.0209836176      0.0181049212
 C     -0.0025476854      0.0146150793      0.0106242638
 C     -0.0233210217      0.0265313373      0.0016713967
 C      0.0046076868      0.0069164448      0.0424575173
 C     -0.0009792856     -0.0108595714      0.0101325293
 C      0.0003711101      0.0282211024     -0.0081601581
 C     -0.0292701104      0.0123069423      0.0662654092
 C     -0.0171132348      0.0135108722      0.0027232618
 C     -0.0380552044      0.0221163584      0.0159611705
 C      0.0182879574      0.0002311298      0.0346720725
 C      0.0131464754     -0.0032820018     -0.0864877164
 C     -0.0174411121      0.0518408021      0.0513333421
 C      0.0536320240     -0.0080406330     -0.0034258923
 C     -0.0351097067     -0.0105947535      0.1206802367
 C      0.0013711184     -0.0818972103     -0.0927484638
 C      0.0014003866     -0.0061759727     -0.0001587546
 H      0.0432371643     -0.0071473992      0.0327061796
 H      0.0043078080      0.0183805985      0.0039337093
 H     -0.0100829778     -0.0294691842     -0.0060532295
 H     -0.0241225692     -0.0153161243     -0.0287690330
 H     -0.0093970289      0.0164621029     -0.0181176831
 H      0.0072590665     -0.0303505610     -0.0015101741
 H      0.0046721369     -0.0025151645      0.0011302633
 H     -0.0014383585     -0.0024642186     -0.0205364211
 H      0.0237568498      0.0085060585     -0.0120062748
 H      0.0051665047     -0.0179302309     -0.0192568621
 H      0.0146534704     -0.0054282195     -0.0030867482
 H      0.0115192214     -0.0353365053      0.0322647678
 H     -0.0024567536     -0.0065368919      0.0233675199
 H      0.0201417545     -0.0489879546     -0.0633766713
 H     -0.0247815996      0.0037007689     -0.0545519089
 H      0.0192463418      0.0341677684     -0.0707224242
 H      0.0157031622      0.0572726761      0.0230866727
 H      0.0134099052      0.0276726685      0.0316349442
38
# ORCA AIMD Force Step 6, t=3.00 fs, E_Pot=-772.14436849 Hartree, Unit is Hartree/Angstrom
 C     -0.0284303359     -0.0031347786     -0.0110692110
 C      0.0007393054     -0.0864804978     -0.0148833628
 C     -0.0156290838      0.0174812162      0.0029601422
 C     -0.0350304107      0.0645731451     -0.0188083540
 C      0.0248203657     -0.0205635824      0.0158244442
 C     -0.0017210160      0.0149524744      0.0109198368
 C     -0.0239234695      0.0291040065      0.0068316661
 C      0.0005606781      0.0121908447      0.0468193867
 C      0.0074139563     -0.0127300239      0.0131247251
 C     -0.0030875800      0.0366774944     -0.0147645112
 C     -0.0301884876      0.0119682687      0.0716214114
 C     -0.0185642263      0.0162022048      0.0033853408
 C     -0.0452694506      0.0264544836      0.0207849670
 C      0.0254200533     -0.0067864743      0.0402051221
 C      0.0154718518     -0.0054104383     -0.0945264735
 C     -0.0173173500      0.0566503464      0.0489340702
 C      0.0526468234     -0.0086705521     -0.0083851450
 C     -0.0362739267     -0.0035759503      0.1326751326
 C      0.0047603804     -0.0880308061     -0.1116509735
 C      0.0007435702     -0.0021338394      0.0071068977
 H      0.0440862757     -0.0032460982      0.0308836853
 H      0.0043744338      0.0243851163      0.0036018518
 H     -0.0065942240     -0.0262699798     -0.0027892891
 H     -0.0203157527     -0.0173277576     -0.0255979672
 H     -0.0091086186      0.0133037115     -0.0128174502
 H      0.0102423168     -0.0368145614     -0.0011876682
 H      0.0083812792     -0.0062645878     -0.0016163925
 H     -0.0021690557     -0.0029760222     -0.0268177434
 H      0.0215698553      0.0052786631     -0.0080299418
 H      0.0079141238     -0.0208582288     -0.0242056023
 H      0.0168634314     -0.0059448106     -0.0094786693
 H      0.0093184891     -0.0328606423      0.0297223026
 H     -0.0049943744     -0.0031850732      0.0280628169
 H      0.0198457726     -0.0514935616     -0.0611845400
 H     -0.0230000101      0.0041677131     -0.0516495008
 H      0.0179632728      0.0328872625     -0.0685445627
 H      0.0142525740      0.0541402682      0.0270344722
 H      0.0138186777      0.0242525198      0.0277913251
38
# ORCA AIMD Force Step 7, t=3.50 fs, E_Pot=-772.14149913 Hartree, Unit is Hartree/Angstrom
 C     -0.0261425587     -0.0076860457     -0.0061857187
 C     -0.0020978800     -0.0960863936     -0.0205797923
 C     -0.0185461572      0.0127050601      0.0037477672
 C     -0.0463942750      0.0743477628     -0.0278568510
 C      0.0251586604     -0.0188353246      0.0120521341
 C      0.0010019634      0.0135374473      0.0117316972
 C     -0.0235136073      0.0307393588      0.0118822766
 C     -0.0041235307      0.0175331878      0.0481353464
 C      0.0171331282     -0.0136765716      0.0149974334
 C     -0.0066512415      0.0448864020     -0.0210248897
 C     -0.0305151688      0.0112576433      0.0755992133
 C     -0.0181968574      0.0183600098      0.0026431401
 C     -0.0519375638      0.0303340448      0.0248007193
 C      0.0331420995     -0.0155399944      0.0463883949
 C      0.0172823446     -0.0069895556     -0.1003908989
 C     -0.0160171991      0.0592531064      0.0429459854
 C      0.0490801160     -0.0093443219     -0.0159813224
 C     -0.0353265574      0.0044034565      0.1384251757
 C      0.0089983197     -0.0892357865     -0.1273915133
 C      0.0004755214      0.0037178012      0.0161456026
 H      0.0428154443      0.0015870039      0.0270522457
 H      0.0047944965      0.0280320699      0.0037912464
 H     -0.0022170419     -0.0212806557      0.0011746218
 H     -0.0148741752     -0.0188618926     -0.0206136483
 H     -0.0083525390      0.0089771919     -0.0061608708
 H      0.0111930820     -0.0414810159     -0.0015565347
 H      0.0115118560     -0.0094450952     -0.0038858089
 H     -0.0026202549     -0.0033157780     -0.0304443289
 H      0.0180258781      0.0012764034     -0.0030074267
 H      0.0089098989     -0.0230549761     -0.0271981350
 H      0.0187836596     -0.0063269253     -0.0150957517
 H      0.0062873927     -0.0281909466      0.0253008028
 H     -0.0070587548     -0.0005007130      0.0320028992
 H      0.0185368475     -0.0519516398     -0.0554781073
 H     -0.0193499888      0.0049269385     -0.0453165462
 H      0.0149709375      0.0296369114     -0.0623324763
 H      0.0115441026      0.0473061134      0.0301816714
 H      0.0138622566      0.0188911669      0.0218022136
38
# ORCA AIMD Force Step 8, t=4.00 fs, E_Pot=-772.13959494 Hartree, Unit is Hartree/Angstrom
 C     -0.0218631729     -0.0129587273      0.0004620640
 C     -0.0052673478     -0.1025912951     -0.0269245762
 C     -0.0221828073      0.0065207592      0.0040576048
 C     -0.0588119910      0.0829284985     -0.0381714161
 C      0.0250696146     -0.0159948240      0.0070913884
 C      0.0059340928      0.0103054073      0.0132819236
 C     -0.0218695198      0.0311319604      0.0165824500
 C     -0.0095495695      0.0228595474      0.0458701828
 C      0.0279387164     -0.0138421311      0.0157740900
 C     -0.0102825529      0.0528727445     -0.0267515320
 C     -0.0302484314      0.0101468310      0.0780844844
 C     -0.0157497218      0.0200662899      0.0002819224
 C     -0.0580826388      0.0337638882      0.0274030027
 C      0.0414360261     -0.0259088269      0.0531500104
 C      0.0184255900     -0.0076452524     -0.1039285295
 C     -0.0134394018      0.0595539932      0.0330664993
 C      0.0428294114     -0.0100449083     -0.0261491240
 C     -0.0319619502      0.0131716479      0.1370131388
 C      0.0140736443     -0.0851690988     -0.1393488327
 C      0.0005515573      0.0112613072      0.0268166903
 H      0.0393269308      0.0072875426      0.0211918503
 H      0.0057396214      0.0288781357      0.0046583693
 H      0.0028483826     -0.0147806914      0.0056776902
 H     -0.0080449535     -0.0198921184     -0.0140472173
 H     -0.0071929767      0.0037283832      0.0015263580
 H      0.0097562663     -0.0442077375     -0.0027489113
 H      0.0138060034     -0.0116980058     -0.0053999503
 H     -0.0026730033     -0.0034278491     -0.0308988815
 H      0.0133036283     -0.0033506161      0.0028679630
 H      0.0078664968     -0.0245632569     -0.0279977993
 H      0.0204529156     -0.0066098210     -0.0193309561
 H      0.0025116362     -0.0214070957      0.0190786003
 H     -0.0085197472      0.0010644473      0.0350833229
 H      0.0161400618     -0.0501416588     -0.0460222114
 H     -0.0138253177      0.0059863384     -0.0355327307
 H      0.0100572508      0.0241990644     -0.0516484625
 H      0.0075270279      0.0367049987      0.0323710878
 H      0.0135254686      0.0117121640      0.0138163111
38
# ORCA AIMD Force Step 9, t=4.50 fs, E_Pot=-772.13792022 Hartree, Unit is Hartree/Angstrom
 C     -0.0157318206     -0.0187530051      0.0086086769
 C     -0.0089192619     -0.1055930318     -0.0334631337
 C     -0.0259709904     -0.0005093639      0.0038768090
 C     -0.0713718446      0.0900187100     -0.0490057715
 C      0.0243343922     -0.0124722235      0.0016739606
 C      0.0127210385      0.0056532948      0.0153740894
 C     -0.0189103594      0.0300622362      0.0202339377
 C     -0.0153924386      0.0279178226      0.0400104010
 C      0.0388237869     -0.0130717928      0.0155176453
 C     -0.0136137802      0.0596931048     -0.0314953220
 C     -0.0293138918      0.0087768255      0.0790332856
 C     -0.0114666144      0.0212478348     -0.0036223616
 C     -0.0634270121      0.0366634674      0.0283783545
 C      0.0495473018     -0.0373387144      0.0596613831
 C      0.0189652632     -0.0072755085     -0.1049504383
 C     -0.0094718292      0.0567169657      0.0194215850
 C      0.0342395870     -0.0106436664     -0.0385138469
 C     -0.0260488725      0.0223543516      0.1276255918
 C      0.0198434672     -0.0753304042     -0.1462423807
 C      0.0012081031      0.0198550808      0.0382825794
 H      0.0336296305      0.0136407205      0.0134185959
 H      0.0071521566      0.0269361510      0.0062190633
 H      0.0082746397     -0.0072853999      0.0103946491
 H     -0.0003056546     -0.0203798563     -0.0063859735
 H     -0.0057198416     -0.0020709421      0.0095743703
 H      0.0062446825     -0.0451171440     -0.0046054691
 H      0.0149588119     -0.0127834893     -0.0058696748
 H     -0.0023422975     -0.0033316309     -0.0280383597
 H      0.0079438937     -0.0081235575      0.0090984962
 H      0.0048715680     -0.0253594539     -0.0266574672
 H      0.0218360529     -0.0067871346     -0.0218590163
 H     -0.0016958144     -0.0129221332      0.0114699110
 H     -0.0093134222      0.0016464063      0.0372370256
 H      0.0125935400     -0.0457566101     -0.0326497403
 H     -0.0066193791      0.0072954800     -0.0226410990
 H      0.0030898676      0.0166174986     -0.0365350275
 H      0.0020899774      0.0225311109      0.0333355627
 H      0.0128068787      0.0032025787      0.0043887002
38
# ORCA AIMD Force Step 10, t=5.00 fs, E_Pot=-772.13557177 Hartree, Unit is Hartree/Angstrom
 C     -0.0077594304     -0.0249096106      0.0182146836
 C     -0.0128021082     -0.1057269920     -0.0405247641
 C     -0.0299084529     -0.0078658459      0.0037049973
 C     -0.0838931515      0.0957439008     -0.0600890693
 C      0.0234873906     -0.0087433931     -0.0037524185
 C      0.0212125648     -0.0003181265      0.0180312823
 C     -0.0146026098      0.0274419306      0.0231200739
 C     -0.0218419025      0.0327917438      0.0309819963
 C      0.0497183959     -0.0119977674      0.0145863544
 C     -0.0169056404      0.0660967204     -0.0352845060
 C     -0.0277567876      0.0069917578      0.0782614286
 C     -0.0055186470      0.0222307492     -0.0086772108
 C     -0.0682319572      0.0390927013      0.0272881131
 C      0.0578025035     -0.0494912252      0.0659217037
 C      0.0187928617     -0.0056719271     -0.1034236615
 C     -0.0040708163      0.0510330346      0.0012828570
 C      0.0233090383     -0.0111878776     -0.0527287078
 C     -0.0171909153      0.0322462765      0.1098803249
 C      0.0263395968     -0.0601995967     -0.1484646531
 C      0.0021149197      0.0291603150      0.0502455379
 H      0.0258754264      0.0205582742      0.0039106357
 H      0.0091075730      0.0224272471      0.0083917388
 H      0.0137071712      0.0006289847      0.0150834898
 H      0.0078561681     -0.0204114424      0.0018600082
 H     -0.0041035861     -0.0078522750      0.0174781976
 H      0.0007772329     -0.0444332131     -0.0070860742
 H      0.0149804808     -0.0125017844     -0.0052651486
 H     -0.0015772525     -0.0029842321     -0.0223133034
 H      0.0022988150     -0.0128753611      0.0153488695
 H      0.0001666464     -0.0256818653     -0.0234568509
 H      0.0230221684     -0.0069026055     -0.0222917138
 H     -0.0062296590     -0.0031216343      0.0027680817
 H     -0.0094715596      0.0007606002      0.0384430835
 H      0.0077732435     -0.0385485244     -0.0149464894
 H      0.0021077965      0.0088698590     -0.0069093296
 H     -0.0061997412      0.0065397491     -0.0163999040
 H     -0.0046606433      0.0049541505      0.0330938523
 H      0.0118001997     -0.0061954674     -0.0060010920
38
# ORCA AIMD Force Step 11, t=5.50 fs, E_Pot=-772.13181608 Hartree, Unit is Hartree/Angstrom
 C      0.0015405930     -0.0310899904      0.0287713479
 C     -0.0168141053     -0.1034143483     -0.0476071033
 C     -0.0333901329     -0.0146860440      0.0037357500
 C     -0.0953075220      0.1000251370     -0.0704072666
 C      0.0225556113     -0.0054921217     -0.0083033292
 C      0.0306011237     -0.0070524034      0.0208579158
 C     -0.0090948920      0.0233358940      0.0249982432
 C     -0.0285281154      0.0373321033      0.0196719777
 C      0.0595992711     -0.0107722133      0.0132985520
 C     -0.0199277888      0.0715518360     -0.0378852685
 C     -0.0255078470      0.0048975523      0.0757907440
 C      0.0014606845      0.0230102702     -0.0143062706
 C     -0.0723173739      0.0409916731      0.0242132526
 C      0.0655084376     -0.0613889268      0.0710315531
 C      0.0180508054     -0.0029500338     -0.0991696101
 C      0.0027299326      0.0421558012     -0.0211076690
 C      0.0107460600     -0.0115321696     -0.0676379709
 C     -0.0055518900      0.0425809833      0.0842983910
 C      0.0332756542     -0.0405110910     -0.1457125008
 C      0.0032527051      0.0380485915      0.0615215602
 H      0.0164900258      0.0277091205     -0.0068597103
 H      0.0113961847      0.0159779325      0.0109634012
 H      0.0186597798      0.0081368707      0.0193166956
 H      0.0156470511     -0.0200617963      0.0098428446
 H     -0.0025237933     -0.0129704330      0.0244005836
 H     -0.0058921353     -0.0425391626     -0.0098620009
 H      0.0138554462     -0.0108767148     -0.0035897187
 H     -0.0005024074     -0.0024373145     -0.0144832675
 H     -0.0029164115     -0.0170752816      0.0209853348
 H     -0.0056559704     -0.0256039467     -0.0189143971
 H      0.0239669768     -0.0069287583     -0.0207306815
 H     -0.0107027684      0.0071766694     -0.0063186560
 H     -0.0090370056     -0.0013955034      0.0386853011
 H      0.0017135895     -0.0284275258      0.0069419726
 H      0.0117356998      0.0106145018      0.0105287478
 H     -0.0176855468     -0.0057026826      0.0080334035
 H     -0.0125449819     -0.0151233409      0.0316027007
 H      0.0106314827     -0.0155401534     -0.0163362423
38
# ORCA AIMD Force Step 12, t=6.00 fs, E_Pot=-772.12648071 Hartree, Unit is Hartree/Angstrom
 C      0.0115304192     -0.0369296172      0.0395722653
 C     -0.0205844187     -0.0994329370     -0.0544243873
 C     -0.0360448655     -0.0200902382      0.0043816732
 C     -0.1048110733      0.1029820140     -0.0790833680
 C      0.0218169515     -0.0033816567     -0.0112960536
 C      0.0402507483     -0.0141991204      0.0236132980
 C     -0.0027500354      0.0180605199      0.0260428308
 C     -0.0352246403      0.0414504613      0.0070346584
 C      0.0678266069     -0.0098527897      0.0121196978
 C     -0.0227233790      0.0761308430     -0.0391408975
 C     -0.0225858486      0.0024476701      0.0714704349
 C      0.0088055783      0.0237719414     -0.0199999330
 C     -0.0756647684      0.0423341026      0.0193324224
 C      0.0724318678     -0.0719899310      0.0739842305
 C      0.0168405150      0.0007150867     -0.0921767775
 C      0.0107051125      0.0304961901     -0.0471276920
 C     -0.0025848965     -0.0115183480     -0.0815599613
 C      0.0083198501      0.0527454880      0.0526223543
 C      0.0401413392     -0.0180405266     -0.1384890110
 C      0.0044085202      0.0455523883      0.0709681127
 H      0.0061465735      0.0347407475     -0.0182106704
 H      0.0138349106      0.0083038260      0.0136549417
 H      0.0226077022      0.0143503998      0.0226773578
 H      0.0222198190     -0.0194634685      0.0166405106
 H     -0.0011745633     -0.0167346708      0.0296443554
 H     -0.0131321003     -0.0397942109     -0.0126689719
 H      0.0117807057     -0.0080686310     -0.0010507838
 H      0.0007794515     -0.0017093730     -0.0054173106
 H     -0.0070369220     -0.0203240909      0.0254221507
 H     -0.0120148955     -0.0252592778     -0.0135449024
 H      0.0246627315     -0.0068601935     -0.0172578396
 H     -0.0147358006      0.0168564110     -0.0148564393
 H     -0.0081847105     -0.0046298306      0.0380096322
 H     -0.0053980681     -0.0156785592      0.0323788842
 H      0.0214012354      0.0124048816      0.0281175570
 H     -0.0308143002     -0.0193975970      0.0352622730
 H     -0.0210230563     -0.0361808113      0.0291081365
 H      0.0094913741     -0.0238108205     -0.0255192158
38
# ORCA AIMD Force Step 13, t=6.50 fs, E_Pot=-772.12026011 Hartree, Unit is Hartree/Angstrom
 C      0.0210372533     -0.0418707795      0.0495517734
 C     -0.0238745022     -0.0945384204     -0.0605772423
 C     -0.0373772685     -0.0232555342      0.0059264527
 C     -0.1114310896      0.1046880374     -0.0850963774
 C      0.0214012092     -0.0030108403     -0.0120956144
 C      0.0494003874     -0.0213281965      0.0259331591
 C      0.0040508495      0.0119898016      0.0263924345
 C     -0.0415706945      0.0450547233     -0.0057988159
 C      0.0736506125     -0.0095091773      0.0114226826