38
# ORCA AIMD Position Step 0, t=0.00 fs, E_Pot=-772.17551674 Hartree, Unit is Angstrom
 C      1.6134750072      0.6445610029     -0.7770160035
 C      2.4013940108      1.7223920077     -0.0478800002
 C      3.3246290149      1.4739310066      0.9106510041
 C      3.6948350165      0.1455370007      1.4268670064
 C      2.6610020119     -0.9843090044      1.5808040071
 C      3.7759000169     -1.1005170049      0.5251600024
 C      3.4903900156     -1.0539710047     -0.9192310041
 C      2.5431510114     -0.2955550013     -1.5199180068
 C      1.2377770055     -0.8385550038      1.2267040055
 C      0.7065090032     -0.1229500006      0.1935760009
 C     -0.7692690034      0.0161820001      0.0286110001
 C     -1.3629840061     -0.3187930014     -1.2930260058
 C     -2.6228420117      0.3199420014     -1.8835810084
 C     -3.3253550149      1.4460190065     -1.2397380056
 C     -3.5045910157      1.5877200071      0.0885670004
 C     -3.0033190135      0.6021910027      1.1311010051
 C     -1.4994970067      0.4154980019      1.1126790050
 C     -3.5424190159     -0.8059350036      0.9843680044
 C     -3.4067980153     -1.5385260069     -0.1459160007
 C     -2.7199120122     -1.1162390050     -1.3782690062
 H      0.9643390043      1.1501310052     -1.5157150068
 H      2.2137990099      2.7708770124     -0.3340870015
 H      3.8548230173      2.3283440104      1.3646380061
 H      4.4585780200      0.1614730007      2.2203020099
 H      2.8342430127     -1.6128250072      2.4682950111
 H      4.5827710205     -1.7945810080      0.8070540036
 H      4.1144520184     -1.7086520077     -1.5495510069
 H      2.4356820109     -0.3569190016     -2.6160430117
 H      0.5341570024     -1.3782010062      1.8820040084
 H     -0.6211550028     -0.6145590028     -2.0525290092
 H     -2.5964620116      0.3783540017     -2.9836260134
 H     -3.7188820167      2.2187730099     -1.9239540086
 H     -4.0366720181      2.4838730111      0.4512920020
 H     -3.2904730147      0.9945850045      2.1246580095
 H     -0.9707820043      0.5178080023      2.0727830093
 H     -3.9264590176     -1.2921580058      1.8962950085
 H     -3.7487980168     -2.5862020116     -0.1259140006
 H     -2.7752370124     -1.8587440083     -2.1904130098
38
# ORCA AIMD Position Step 1, t=0.50 fs, E_Pot=-772.17223218 Hartree, Unit is Angstrom
 C      1.6176394077      0.6429737647     -0.7756293204
 C      2.4013990983      1.7282827794     -0.0406320486
 C      3.3293570961      1.4723791155      0.9106122275
 C      3.7005803296      0.1396419274      1.4297167063
 C      2.6583335211     -0.9828549349      1.5785658973
 C      3.7735350704     -1.0989055792      0.5233454037
 C      3.4928214555     -1.0577974444     -0.9209821994
 C      2.5470476513     -0.2992421596     -1.5207220871
 C      1.2344217086     -0.8385261271      1.2263994783
 C      0.7086213917     -0.1310611081      0.1916615806
 C     -0.7665008157      0.0134973175      0.0249401837
 C     -1.3612596420     -0.3227795771     -1.2923509127
 C     -2.6173810720      0.3165553903     -1.8832472856
 C     -3.3289624595      1.4441351344     -1.2418432937
 C     -3.5035414282      1.5855881559      0.0912934263
 C     -3.0003698035      0.5985219148      1.1303873341
 C     -1.4978014298      0.4130014926      1.1127762317
 C     -3.5426192720     -0.8047883344      0.9790046455
 C     -3.4068795552     -1.5337228962     -0.1419772616
 C     -2.7173493668     -1.1183808039     -1.3798619380
 H      0.9496053050      1.1382918696     -1.5215744622
 H      2.2045886556      2.7671853301     -0.3332164841
 H      3.8588127459      2.3360191761      1.3623350673
 H      4.4666344240      0.1682056623      2.2300948348
 H      2.8366480637     -1.6217117572      2.4633794392
 H      4.5863366340     -1.7721374082      0.8118130352
 H      4.1106154008     -1.7148023134     -1.5507106529
 H      2.4354251028     -0.3604295270     -2.6102091804
 H      0.5219535303     -1.3751376193      1.8825752351
 H     -0.6144378465     -0.5995335232     -2.0447760182
 H     -2.6064078538      0.3789369543     -2.9809694921
 H     -3.7158825567      2.2283959324     -1.9321690517
 H     -4.0258214124      2.4916832214      0.4335172676
 H     -3.2923497923      1.0141299248      2.1364074706
 H     -0.9633242438      0.5124706585      2.0852428891
 H     -3.9337706786     -1.2979605339      1.9092880161
 H     -3.7568729285     -2.5929577771     -0.1456047432
 H     -2.7828444348     -1.8671662977     -2.1968779379
38
# ORCA AIMD Position Step 2, t=1.00 fs, E_Pot=-772.16683705 Hartree, Unit is Angstrom
 C      1.6217362421      0.6414065938     -0.7742902462
 C      2.4014811519      1.7341091882     -0.0333174650
 C      3.3340107921      1.4709053473      0.9105089789
 C      3.7063263274      0.1337661853      1.4325865082
 C      2.6557392068     -0.9814439827      1.5763735990
 C      3.7711758746     -1.0972780144      0.5215841283
 C      3.4951610611     -1.0615490214     -0.9228104864
 C      2.5510388172     -0.3029996526     -1.5214641441
 C      1.2309625237     -0.8384638367      1.2260279728
 C      0.7108028571     -0.1392108982      0.1898443173
 C     -0.7638414655      0.0108675310      0.0214539864
 C     -1.3595570955     -0.3267753653     -1.2917076022
 C     -2.6119420795      0.3131695770     -1.8829192009
 C     -3.3325832689      1.4423004310     -1.2438369639
 C     -3.5024799243      1.5834737814      0.0938218546
 C     -2.9974469567      0.5949177653      1.1297963964
 C     -1.4959267242      0.4104700566      1.1128246122
 C     -3.5428821438     -0.8037585841      0.9737545623
 C     -3.4069774013     -1.5290087332     -0.1380454394
 C     -2.7147479367     -1.1205426224     -1.3815058440
 H      0.9361771510      1.1257134697     -1.5261582153
 H      2.1956264703      2.7625348600     -0.3319635658
 H      3.8619313901      2.3422179484      1.3593443713
 H      4.4732978938      0.1746846558      2.2384402937
 H      2.8386786768     -1.6295831321      2.4570218872
 H      4.5890725779     -1.7493298963      0.8162346582
 H      4.1061386565     -1.7202296221     -1.5511799511
 H      2.4352914377     -0.3639275098     -2.6034217690
 H      0.5108797600     -1.3713066822      1.8821445404
 H     -0.6085262317     -0.5845645161     -2.0363938412
 H     -2.6161520584      0.3794032225     -2.9770219447
 H     -3.7121931250      2.2365090674     -1.9388768378
 H     -4.0143946786      2.4982873722      0.4157372097
 H     -3.2935401483      1.0323926591      2.1459176397
 H     -0.9567683066      0.5074551356      2.0955509987
 H     -3.9405806888     -1.3025198102      1.9197320470
 H     -3.7642951699     -2.5974984433     -0.1650987257
 H     -2.7898688646     -1.8742049968     -2.2017467432
38
# ORCA AIMD Position Step 3, t=1.50 fs, E_Pot=-772.16044459 Hartree, Unit is Angstrom
 C      1.6257368063      0.6398634878     -0.7730188320
 C      2.4016237620      1.7397950984     -0.0259548351
 C      3.3386060053      1.4695311722      0.9103653134
 C      3.7120631566      0.1279706613      1.4354745367
 C      2.6532331668     -0.9801032043      1.5742524596
 C      3.7688146364     -1.0956117896      0.5198768003
 C      3.4974036353     -1.0652161820     -0.9247049110
 C      2.5551168751     -0.3068096822     -1.5221017275
 C      1.2274039533     -0.8383982089      1.2256265875
 C      0.7130429751     -0.1473669419      0.1880879998
 C     -0.7613033833      0.0082937057      0.0181981064
 C     -1.3578910787     -0.3307651517     -1.2910845076
 C     -2.6065643094      0.3098112678     -1.8825796556
 C     -3.3362036528      1.4405157495     -1.2457103258
 C     -3.5013900900      1.5813694201      0.0960760621
 C     -2.9945736236      0.5914427543      1.1294014089
 C     -1.4938210558      0.4078977575      1.1128528018
 C     -3.5432559242     -0.8028490234      0.9687828787
 C     -3.4070939805     -1.5244932539     -0.1342415995
 C     -2.7121122159     -1.1227469671     -1.3832081808
 H      0.9245853831      1.1123162840     -1.5290644920
 H      2.1869264185      2.7574421049     -0.3303343887
 H      3.8641281705      2.3466491264      1.3556439285
 H      4.4783562536      0.1807138021      2.2450589522
 H      2.8402353739     -1.6363082353      2.4490973710
 H      4.5912992456     -1.7267305550      0.8203784603
 H      4.1012095366     -1.7251139225     -1.5510634218
 H      2.4352360761     -0.3674615945     -2.5962219198
 H      0.5011664718     -1.3666539431      1.8806393312
 H     -0.6031368462     -0.5699297321     -2.0278469411
 H     -2.6255035434      0.3796791812     -2.9720618118
 H     -3.7076884918      2.2427192615     -1.9437539648
 H     -4.0025380875      2.5038299343      0.3983217999
 H     -3.2937734383      1.0487438686      2.1523250773
 H     -0.9514558924      0.5026988197      2.1030525672
 H     -3.9465413586     -1.3053820273      1.9267106374
 H     -3.7708797453     -2.5991071318     -0.1840917255
 H     -2.7962300673     -1.8795741602     -2.2046934679
38
# ORCA AIMD Position Step 4, t=2.00 fs, E_Pot=-772.15409384 Hartree, Unit is Angstrom
 C      1.6296224389      0.6383399961     -0.7718249407
 C      2.4018123908      1.7452643704     -0.0185572517
 C      3.3431558121      1.4682676642      0.9102012151
 C      3.7177740650      0.1223129375      1.4383715823
 C      2.6508257672     -0.9788518294      1.5722164785
 C      3.7664392050     -1.0938840089      0.5182208621
 C      3.4995440750     -1.0687889927     -0.9266499715
 C      2.5592750809     -0.3106545631     -1.5225899299
 C      1.2237576793     -0.8383549943      1.2252278746
 C      0.7153308427     -0.1554994615      0.1863535024
 C     -0.7588955083      0.0057742207      0.0152133484
 C     -1.3562777411     -0.3347360167     -1.2904670919
 C     -2.6012836206      0.3065042029     -1.8822054563
 C     -3.3398057596      1.4387705127     -1.2474500759
 C     -3.5002538685      1.5792621028      0.0979865847
 C     -2.9917640737      0.5881496172      1.1292519790
 C     -1.4914435001      0.4052765627      1.1128754976
 C     -3.5437792778     -0.8020479079      0.9642296920
 C     -3.4072262781     -1.5202677833     -0.1306868140
 C     -2.7094446851     -1.1250077420     -1.3849660606
 H      0.9152524374      1.0980980502     -1.5300136662
 H      2.1784793364      2.7524622101     -0.3283565053
 H      3.8654227639      2.3491401021      1.3512673958
 H      4.4817109888      0.1861080183      2.2497891371
 H      2.8412444876     -1.6418391225      2.4395901623
 H      4.5933713350     -1.7049081410      0.8243200128
 H      4.0960493089     -1.7296804428     -1.5505068275
 H      2.4352042673     -0.3710851196     -2.5891953831
 H      0.4929514752     -1.3611866969      1.8780653132
 H     -0.5979527262     -0.5558936477     -2.0196164782
 H     -2.6342844919      0.3797000125     -2.9664366975
 H     -3.7023084395      2.2467636340     -1.9465934343
 H     -3.9904109462      2.5085096160      0.3816302754
 H     -3.2928559800      1.0626742351      2.1550407967
 H     -0.9476168349      0.4981611865      2.1072954193
 H     -3.9514223414     -1.3062381428      1.9295847739
 H     -3.7765086067     -2.5972802749     -0.2022841342
 H     -2.8018585309     -1.8831094016     -2.2055279462
38
# ORCA AIMD Position Step 5, t=2.50 fs, E_Pot=-772.14858279 Hartree, Unit is Angstrom
 C      1.6333840868      0.6368240304     -0.7707084562
 C      2.4020339727      1.7504430890     -0.0111348830
 C      3.3476687704      1.4671157835      0.9100321904
 C      3.7234339050      0.1168479861      1.4412600480
 C      2.6485242935     -0.9777012441      1.5702689315
 C      3.7640370632     -1.0920743395      0.5166125722
 C      3.5015774852     -1.0722569065     -0.9286264255
 C      2.5635062046     -0.3145160983     -1.5228855995
 C      1.2200433387     -0.8383549081      1.2248590053
 C      0.7176548241     -0.1635797692      0.1846001544
 C     -0.7566238859      0.0033054141      0.0125361835
 C     -1.3547327471     -0.3386771173     -1.2898411617
 C     -2.5961333144      0.3032697237     -1.8817691439
 C     -3.3433671344      1.4370430360     -1.2490380849
 C     -3.4990526815      1.5771354125      0.0994909555
 C     -2.9890248958      0.5850804780      1.1293764875
 C     -1.4887646944      0.4025972577      1.1128935460
 C     -3.5444815488     -0.8013318704      0.9602104981
 C     -3.4073659981     -1.5164045210     -0.1274991609
 C     -2.7067460000     -1.1273291117     -1.3867657186
 H      0.9084871433      1.0831329827     -1.5288505736
 H      2.1702630499      2.7481444611     -0.3260669467
 H      3.8659045477      2.3496387730      1.3463044946
 H      4.4833758289      0.1906960025      2.2525868493
 H      2.8416603380     -1.6462133545      2.4285960333
 H      4.5956383792     -1.6844020021      0.8281362390
 H      4.0909013060     -1.7341862129     -1.5496848202
 H      2.4351365314     -0.3748522544     -2.5829214952
 H      0.4862781889     -1.3549752426      1.8745091176
 H     -0.5926588528     -0.5426979870     -2.0121658338
 H     -2.6423306960      0.3794098875     -2.9605399584
 H     -3.6960550010      2.2485103848     -1.9473032574
 H     -3.9781770256      2.5125600452      0.3660060408
 H     -3.2906637958      1.0737892404      2.1537228217
 H     -0.9453710353      0.4938236115      2.1080265577
 H     -3.9551009101     -1.3049086745      1.9279693264
 H     -3.7811317745     -2.5917275773     -0.2193884894
 H     -2.8066970968     -1.8847693126     -2.2041975369
38
# ORCA AIMD Position Step 6, t=3.00 fs, E_Pot=-772.14436849 Hartree, Unit is Angstrom
 C      1.6370206740      0.6352978386     -0.7696601279
 C      2.4022755249      1.7552605151     -0.0036998865
 C      3.3521474984      1.4660668016      0.9098700462
 C      3.7290068721      0.1116298763      1.4441126562
 C      2.6463333397     -0.9766556655      1.5684035451
 C      3.7615997026     -1.0901684515      0.5150483810
 C      3.5035008630     -1.0756098475     -0.9306111771
 C      2.5678000225     -0.3183738054     -1.5229508360
 C      1.2162907882     -0.8384144287      1.2245424920
 C      0.7200013863     -0.1715766025      0.1827865163
 C     -0.7544928443      0.0008823355      0.0101990794
 C     -1.3532680290     -0.3425788966     -1.2891947504
 C     -2.5911463625      0.3001280472     -1.8812413646
 C     -3.3468596100      1.4353015571     -1.2504498189
 C     -3.4977687157      1.5749719076      0.1005338990
 C     -2.9863572369      0.5822687589      1.1297838622
 C     -1.4857678251      0.3998501331      1.1128929493
 C     -3.5453827429     -0.8006676571      0.9568181813
 C     -3.4074994273     -1.5129566364     -0.1247924199
 C     -2.7040157720     -1.1297049018     -1.3885821569
 H      0.9044899461      1.0675681532     -1.5255380703
 H      2.1622558814      2.7449907158     -0.3234998665
 H      3.8657311191      2.3482144371      1.3409018135
 H      4.4834776633      0.1943228020      2.2535276712
 H      2.8414652572     -1.6495495602      2.4163197401
 H      4.5984002390     -1.6656996507      0.8318874284
 H      4.0860133734     -1.7388963167     -1.5487816223
 H      2.4349741218     -0.3788138614     -2.5779353192
 H      0.4810997142     -1.3481525454      1.8701362219
 H     -0.5869802695     -0.5305583937     -2.0059088101
 H     -2.6494896264      0.3787621683     -2.9547929793
 H     -3.6889928742      2.2479614131     -1.9459090967
 H     -3.9659956401      2.5162187384      0.3517720278
 H     -3.2871348729      1.0817984729      2.1482480812
 H     -0.9447262093      0.4896897391      2.1051962231
 H     -3.9575532013     -1.3013327306      1.9217140389
 H     -3.7847687546     -2.5823799076     -0.2351340759
 H     -2.8107013683     -1.8846339821     -2.2007863015
38
# ORCA AIMD Position Step 7, t=3.50 fs, E_Pot=-772.14149913 Hartree, Unit is Angstrom
 C      1.6405390377      0.6337384985     -0.7686616654
 C      2.4025236592      1.7596531542      0.0037309457
 C      3.3565871130      1.4651029017      0.9097224707
 C      3.7344455683      0.1067120281      1.4468917153
 C      2.6442558661     -0.9757121368      1.5666056192
 C      3.7591274506     -1.0881605344      0.5135278513
 C      3.5053128951     -1.0788379041     -0.9325791139
 C      2.5721417324     -0.3222048050     -1.5227595603
 C      1.2125398018     -0.8385445004      1.2242947736
 C      0.7223554772     -0.1794554133      0.1808728445
 C     -0.7525053968     -0.0015002861      0.0082310224
 C     -1.3518900034     -0.3464323928     -1.2885229962
 C     -2.5863560435      0.2970989054     -1.8805938991
 C     -3.3502488945      1.4335046232     -1.2516554274
 C     -3.4963863584      1.5727561023      0.1010684645
 C     -2.9837568667      0.5797388931      1.1304642981
 C     -1.4824504744      0.3970267085      1.1128462843
 C     -3.5464926059     -0.8000161556      0.9541192855
 C     -3.4076080988     -1.5099563482     -0.1226707628
 C     -2.7012529656     -1.1321172085     -1.3903785119
 H      0.9033367617      1.0516284049     -1.5201694615
 H      2.1544514816      2.7434002188     -0.3206702309
 H      3.8651242463      2.3450556979      1.3352601711
 H      4.4822507645      0.1968532395      2.2528027610
 H      2.8406719231     -1.6520497707      2.4030763424
 H      4.6018613479     -1.6492118629      0.8356000262
 H      4.0816230367     -1.7440656344     -1.5479748015
 H      2.4346680386     -0.3830116130     -2.5746524986
 H      0.4772790800     -1.3409131216      1.8651920778
 H     -0.5807243921     -0.5196574113     -2.0011708972
 H     -2.6556194507      0.3777185632     -2.9496064621
 H     -3.6812470895      2.2452557726     -1.9425548710
 H     -3.9540140386      2.5197071317      0.3392263540
 H     -3.2822700879      1.0865207096      2.1387112842
 H     -0.9455801516      0.4857855275      2.0989555594
 H     -3.9588552744     -1.2955667847      1.9109067883
 H     -3.7875107694     -2.5693908547     -0.2492744102
 H     -2.8138429090     -1.8829097566     -2.1955203449
38
# ORCA AIMD Position Step 8, t=4.00 fs, E_Pot=-772.13959494 Hartree, Unit is Angstrom
 C      1.6439535442      0.6321192723     -0.7676858989
 C      2.4027630721      1.7635674390      0.0111327666
 C      3.3609750431      1.4641979173      0.9095938219
 C      3.7396908408      0.1021471217      1.4495491299
 C      2.6422931478     -0.9748614443      1.5648535825
 C      3.7566327285     -1.0860554974      0.5120545889
 C      3.5070162087     -1.0819335556     -0.9345040189
 C      2.5765099125     -0.3259827999     -1.5223015824
 C      1.2088405269     -0.8387512064      1.2241266734
 C      0.7246996543     -0.1871767003      0.1788219704
 C     -0.7506631612     -0.0038480012      0.0066561655
 C     -1.3505963883     -0.3502285950     -1.2878291143
 C     -2.5817969497      0.2942021921     -1.8798028092
 C     -3.3534943937      1.4316019516     -1.2526197419
 C     -3.4948933794      1.5704768099      0.1010573604
 C     -2.9812150958      0.5775060363      1.1313884525
 C     -1.4788258539      0.3941199797      1.1127112626
 C     -3.5478091728     -0.7993330814      0.9521505925
 C     -3.4076685479     -1.5074125216     -0.1212252029
 C     -2.6984562813     -1.1345363814     -1.3921064634
 H      0.9049742990      1.0356122036     -1.5129685826
 H      2.1468727331      2.7436274048     -0.3175603045
 H      3.8643653229      2.3404676488      1.3296316067
 H      4.4800359456      0.1981771401      2.2507197617
 H      2.8393226450     -1.6539904024      2.3892796342
 H      4.6060946031     -1.6352538816      0.8392527069
 H      4.0779368724     -1.7499119619     -1.5474133128
 H      2.4341869042     -0.3874740013     -2.5733261771
 H      0.4745956361     -1.3335081893      1.8599950431
 H     -0.5738142565     -0.5101428271     -1.9981604401
 H     -2.6605885928      0.3762488295     -2.9453497990
 H     -3.6730019214      2.2406734289     -1.9375058637
 H     -3.9423590933      2.5232022114      0.3286344217
 H     -3.2761363654      1.0878943285      2.1254335798
 H     -0.9477108922      0.4821597757      2.0896767186
 H     -3.9591917094     -1.2877948154      1.8958953948
 H     -3.7895278474     -2.5531569713     -0.2615983118
 H     -2.8161122296     -1.8799289304     -2.1887670784
38
# ORCA AIMD Position Step 9, t=4.50 fs, E_Pot=-772.13792022 Hartree, Unit is Angstrom
 C      1.6472876041      0.6304099787     -0.7666962402
 C      2.4029763181      1.7669633635      0.0184727108
 C      3.3652920949      1.4633182458      0.9094859792
 C      3.7446738747      0.0979849279      1.4520276501
 C      2.6404453914     -0.9740887713      1.5631201402
 C      3.7541415988     -1.0838693250      0.5106371909
 C      3.5086191319     -1.0848941043     -0.9363601724
 C      2.5808764241     -0.3296791006     -1.5215861472
 C      1.2052517801     -0.8390364017      1.2240433210
 C      0.7270145859     -0.1946972013      0.1766001936
 C     -0.7489657551     -0.0061672580      0.0054921832
 C     -1.3493742922     -0.3539586680     -1.2871256099
 C     -2.5775040689      0.2914573628     -1.8788518927
 C     -3.3565498963      1.4295347335     -1.2533031325
 C     -3.4932817526      1.5681289764      0.1004748760
 C     -2.9787176235      0.5755745445      1.1325051115
 C     -1.4749236476      0.3911242201      1.1124309393
 C     -3.5493167385     -0.7985696611      0.9509120979
 C     -3.4076523435     -1.5053072374     -0.1205287661
 C     -2.6956240274     -1.1369218015     -1.3937071187
 H      0.9092066217      1.0198869627     -1.5042959563
 H      2.1395817288      2.7457486194     -0.3141090940
 H      3.8637841258      2.3348581527      1.3243094194
 H      4.4772684509      0.1982136012      2.2476924996
 H      2.8374865617     -1.6557094203      2.3754223780
 H      4.6110161007     -1.6240289104      0.8427678436
 H      4.0751120514     -1.7565924740     -1.5471989635
 H      2.4335251026     -0.3922128155     -2.5740081594
 H      0.4727522983     -1.3262365545      1.8549253820
 H     -0.5663085057     -0.5021263262     -1.9969486853
 H     -2.6642759760      0.3743290832     -2.9423097007
 H     -3.6644963244      2.2346357055     -1.9311485532
 H     -3.9311265532      2.5268076708      0.3202170545
 H     -3.2688741803      1.0859998803      2.1089871527
 H     -0.9507719178      0.4788839179      2.0779626925
 H     -3.9588733550     -1.2783474956      1.8773266144
 H     -3.7910754073     -2.5343302062     -0.2719454379
 H     -2.8175220965     -1.8761463308     -2.1810303362
38
# ORCA AIMD Position Step 10, t=5.00 fs, E_Pot=-772.13557177 Hartree, Unit is Angstrom
 C      1.6505745664      0.6285774088     -0.7656475693
 C      2.4031430531      1.7698189487      0.0257154040
 C      3.3695173748      1.4624253837      0.9093981737
 C      3.7493234318      0.0942684093      1.4542660583
 C      2.6387095773     -0.9733755321      1.5613754246
 C      3.7516909728     -1.0816262534      0.5092875632
 C      3.5101370372     -1.0877243684     -0.9381270232
 C      2.5852098988     -0.3332655952     -1.5206423218
 C      1.2018340605     -0.8393968220      1.2240442854
 C      0.7292820251     -0.2019783963      0.1741790420
 C     -0.7474094397     -0.0084656626      0.0047489030
 C     -1.3482007937     -0.3576159993     -1.2864337081
 C     -2.5735091436      0.2888816535     -1.8777337467
 C     -3.3593691254      1.4272378447     -1.2536666331
 C     -3.4915468364      1.5657134169      0.0993085926
 C     -2.9762427188      0.5739320148      1.1337417219
 C     -1.4707871323      0.3880345662      1.1119355919
 C     -3.5509853035     -0.7976743402      0.9503605401
 C     -3.4075268669     -1.5035911818     -0.1206280063
 C     -2.6927516785     -1.1392262531     -1.3951162390
 H      0.9156917163      1.0048694620     -1.4946419568
 H      2.1326730793      2.7496592390     -0.3102097624
 H      3.8637380625      2.3287051961      1.3196052295
 H      4.4744482465      0.1969155882      2.2442111913
 H      2.8352541347     -1.6575843921      2.3620285754
 H      4.6164047640     -1.6156265785      0.8460228367
 H      4.0732336840     -1.7641892286     -1.5473665530
 H      2.4327020607     -0.3972258294     -2.5765347430
 H      0.4714075219     -1.3194111313      1.8503918014
 H     -0.5583950051     -0.4956762103     -1.9974687132
 H     -2.6665766266      0.3719420959     -2.9406654849
 H     -3.6560013390      2.2276802508     -1.9239648586
 H     -3.9203713768      2.5305635588      0.3141393323
 H     -3.2607013240      1.0810859432      2.0902078672
 H     -0.9543026767      0.4760472289      2.0646272841
 H     -3.9583488502     -1.2677001203      1.8561454159
 H     -3.7925043507     -2.5138052490     -0.2802312632
 H     -2.8181097507     -1.8721092792     -2.1729147442
38
# ORCA AIMD Position Step 11, t=5.50 fs, E_Pot=-772.13181608 Hartree, Unit is Angstrom
 C      1.6538595529      0.6265851848     -0.7644857613
 C      2.4032414585      1.7721285324      0.0328249266
 C      3.3736305057      1.4614782175      0.9093296537
 C      3.7535692513      0.0910323414      1.4562017700
 C      2.6370814231     -0.9727015401      1.5595884777
 C      3.7493266494     -1.0793571635      0.5080203751
 C      3.5115934390     -1.0904387767     -0.9397886181
 C      2.5894769188     -0.3367161790     -1.5195164546
 C      1.1986474142     -0.8398276752      1.2241254665
 C      0.7314845761     -0.2089862871      0.1715339025
 C     -0.7459864821     -0.0107540749      0.0044267506
 C     -1.3470431130     -0.3611963675     -1.2857809538
 C     -2.5698399450      0.2864890143     -1.8764517121
 C     -3.3619054210      1.4246403891     -1.2536721557
 C     -3.4896871086      1.5632367667      0.0975591849
 C     -2.9737595604      0.5725497627      1.1350006946
 C     -1.4664712425      0.3848451469      1.1111441779
 C     -3.5527690503     -0.7965906261      0.9504063435
 C     -3.4072550058     -1.5021848969     -0.1215448244
 C     -2.6898321428     -1.1413988910     -1.3962665225
 H      0.9239524409      0.9910130265     -1.4846122242
 H      2.1262756308      2.7550876950     -0.3057123361
 H      3.8645895181      2.3225172811      1.3158310702
 H      4.4721078634      0.1942641560      2.2408086540
 H      2.8327252062     -1.6599970531      2.3496141327
 H      4.6219110592     -1.6100314808      0.8488538471
 H      4.0723135798     -1.7726991383     -1.5478811879
 H      2.4317654890     -0.4024964266     -2.5805545639
 H      0.4701967156     -1.3133448035      1.8468077510
 H     -0.5503726224     -0.4908289137     -1.9995320635
 H     -2.6673973530      0.3690733031     -2.9404614604
 H     -3.6478093568      2.2204341640     -1.9165108713
 H     -3.9101036324      2.5344157762      0.3105051501
 H     -3.2519179933      1.0735854888      2.0702168187
 H     -0.9577390418      0.4737565738      2.0506740959
 H     -3.9582240574     -1.2564924559      1.8336274932
 H     -3.7942563471     -2.4927016131     -0.2864513632
 H     -2.8179315345     -1.8684281767     -2.1650918765
38
# ORCA AIMD Position Step 12, t=6.00 fs, E_Pot=-772.12648071 Hartree, Unit is Angstrom
 C      1.6571984234      0.6243943488     -0.7631495782
 C      2.4032487035      1.7739009973      0.0397707600
 C      3.3776167593      1.4604371482      0.9092807426
 C      3.7573493239      0.0883019367      1.4577768183
 C      2.6355548771     -0.9720484525      1.5577311411
 C      3.7470980294     -1.0770955153      0.5068504431
 C      3.5130199268     -1.0930622978     -0.9413356263
 C      2.5936459422     -0.3400090366     -1.5182667790
 C      1.1957446686     -0.8403237585      1.2242809457
 C      0.7336079182     -0.2156973267      0.1686437348
 C     -0.7446842139     -0.0130471697      0.0045171880
 C     -1.3458613927     -0.3646996100     -1.2851978977
 C     -2.5665179591      0.2842888617     -1.8750187218
 C     -3.3641163108      1.4216692342     -1.2532868996
 C     -3.4877023492      1.5607096503      0.0952399099
 C     -2.9712270569      0.5713803689      1.1361609233
 C     -1.4620365655      0.3815481854      1.1099696429
 C     -3.5546080026     -0.7952576282      0.9509166365
 C     -3.4067962858     -1.5009820880     -0.1232761063
 C     -2.6868543536     -1.1433921957     -1.3970941801
 H      0.9334085451      0.9787818544     -1.4748936237
 H      2.1205369632      2.7616388053     -0.3004339106
 H      3.8666762022      2.3167773410      1.3132712735
 H      4.4707610550      0.1902606896      2.2380044474
 H      2.8299958449     -1.6632934909      2.3386279557
 H      4.6271071377     -1.6071481951      0.8510773708
 H      4.0722892127     -1.7820398260     -1.5486383022
 H      2.4307830304     -0.4079996833     -2.5855795681
 H      0.4687779536     -1.3083141928      1.8445500981
 H     -0.5426101932     -0.4875933803     -2.0028640881
 H     -2.6666579894      0.3657105609     -2.9416138571
 H     -3.6402058856      2.2135584684     -1.9093681443
 H     -3.9002864882      2.5382297425      0.3093571998
 H     -3.2429009006      1.0641174617      2.0504046056
 H     -0.9604534356      0.4721302135      2.0372183743
 H     -3.9592571216     -1.2455037792      1.8113250396
 H     -3.7968550929     -2.4722978588     -0.2906853573
 H     -2.8170537843     -1.8657151080     -2.1582319898
38
# ORCA AIMD Position Step 13, t=6.50 fs, E_Pot=-772.12026011 Hartree, Unit is Angstrom
 C      1.6606556342      0.6219640785     -0.7615734309
 C      2.4031426546      1.7751547196      0.0465307595
 C      3.3814698582      1.4592682985      0.9092551701
 C      3.7606139798      0.0860941029      1.4589420020
 C      2.6341234746     -0.9714032753      1.5557810767
 C      3.7450545910     -1.0748749712      0.5057914059
 C      3.5144546805     -1.0956293805     -0.9427645439
 C      2.5976893303     -0.3431275736     -1.5169578298
 C      1.1931679709     -0.8408822710      1.2245057525
 C      0.7356409200     -0.2220990831      0.1654904689