60
Properties=species:S:1:pos:R:3:momenta:R:3:forces:R:3:energies:R:1 Coordinates=T from=T ORCA-job=T get_bvl_bvl_rxn1_TS=T energy=-32855.97842319336 free_energy=-32855.97842319336 pbc="F F F"
C        0.46687930      -1.74277742      -5.91183426       0.50857575       0.09261016       0.67649287      -0.02075361      -0.01266844       0.00911053    -547.65332031
C        0.83631837      -2.13856769      -4.48535485       0.80634445       0.91735980      -0.46876726      -0.02326011      -0.04523813       0.01551306    -547.76324463
O        0.35415902      -1.11372142      -3.57334321       0.14214767      -0.26058416       0.07936916       0.08001968      -0.09052169      -0.01617680    -547.49121094
C        0.13701637      -3.44668676      -4.09613598      -0.34863850      -0.02022541       0.97182517      -0.03357414      -0.02333146      -0.00376511    -547.60180664
C        2.38857064      -2.15407851      -4.17950446      -0.04015803      -0.22296823       0.29449694      -0.01217998       0.01389265       0.04109040    -547.72698975
C        3.05367328      -3.52115219      -4.30298936      -0.40741577       0.51529903      -0.10114374      -0.00039051      -0.01734280       0.02287669    -547.65545654
C        3.16525420      -1.10560767      -4.98572458      -0.24240871      -0.85680786      -1.47533352      -0.01458810       0.05062288       0.01443989    -547.57226562
O        2.43362987      -1.73437883      -2.78848933      -0.08529659       0.18972568      -0.45082264      -0.07729361       0.01429541      -0.02133401    -547.39996338
B        1.27704127      -1.01643069      -2.54405197       0.95699705      -0.97265750       0.09301945       0.01241159      -0.05907729       0.00302942    -547.64984131
C        1.02064124      -0.19239482      -1.25802912      -0.31171708       0.72171476       0.93268701       0.05100881       0.01521474       0.05265624    -547.58349609
C        2.07828393       0.00289099      -0.34483560      -0.06199400      -0.03201638      -0.47388150      -0.01587881      -0.01635745      -0.03315758    -547.68023682
C        2.12647436       0.85717414       0.75866565      -1.18442042      -0.45184135       0.12528023       0.01644744      -0.00208232      -0.01631741    -547.63952637
H        3.09496107       0.97353107       1.27073676       0.20573597       0.17404477      -0.06523424      -0.16304000       0.01963462      -0.04462446    -547.53674316
C        0.99842220       1.71637712       1.27626036      -0.12019329      -0.76046737      -0.74779965       0.01385573       0.01726689      -0.03060193    -547.75366211
H        1.26162995       2.11947432       2.26982644      -0.27558284       0.31289768      -0.08023979      -0.07510654      -0.07120834      -0.18723708    -547.57574463
C       -0.38993304       1.12545171       1.32613984      -0.24661450      -0.76172139       0.58074333      -0.01930530      -0.01897848      -0.07829820    -547.73760986
B       -1.16290177       1.14270022       2.67321288      -0.83228372      -0.08579768      -0.34777284      -0.03636897      -0.00266085       0.04374025    -547.67022705
O       -0.67214969       1.75414212       3.81222080       0.46598975      -0.34394650      -0.60433167      -0.09533139      -0.06266057       0.00901240    -547.41650391
C       -1.54968185       1.38380616       4.91227778       0.15058811       0.32464301       0.21258493       0.00306035       0.01055910      -0.04608003    -547.76043701
C       -1.66582225       2.56692396       5.86833446       0.47842675      -0.27689440      -0.03655741       0.01935787       0.00721893       0.00463797    -547.67443848
C       -0.89805273       0.18827451       5.61745909      -0.29593963      -0.18344105      -0.31683017      -0.00332287      -0.03160662      -0.03214338    -547.57611084
C       -2.88893562       1.00187641       4.15885533      -0.89391929       0.28881755      -0.00540496       0.03532262       0.00286267      -0.01934488    -547.71234131
C       -3.79583141       2.21206795       3.90224876      -0.74633970       0.52927551      -0.26837218      -0.00553889       0.03330756      -0.02186966    -547.59002686
C       -3.68274621      -0.13186764       4.80044204       0.06516154       0.67780022       0.33735016      -0.03071559      -0.01328981      -0.00324841    -547.65307617
O       -2.40011693       0.55766221       2.86425995       0.78620818      -0.63956664       0.54907184       0.06890225       0.07830125       0.05492637    -547.44287109
C       -0.96908073       0.56352202       0.23675297      -0.47872731      -0.49641691      -0.18001172       0.05643858       0.02261403       0.04422878    -547.63311768
C       -0.35187879       0.45723770      -1.12354535      -0.32390251      -0.01733441      -0.54285053      -0.00151309       0.04553454       0.00758303    -547.66711426
H       -1.05183474      -0.03345816      -1.82188575       0.13335985       0.07862837      -0.24421588       0.11179581       0.08042203       0.12587689    -547.56634521
C        0.21509164       1.69186634      -1.76967928       0.79734712       0.99758761       0.78741849       0.06036732       0.14373037       0.00496251    -547.64868164
C        0.94511119       2.69762672      -1.13059845      -0.05945407      -0.77907826       0.68302916      -0.01509894      -0.04715023      -0.00567863    -547.71722412
C        1.34614185       2.72161803       0.21131183      -0.13504344       0.52086772       0.17746768       0.04051372      -0.02321774      -0.00864987    -547.60113525
H        2.03790975       3.52234491       0.51794219       0.17874718       0.03931200       0.12078511      -0.16230394      -0.14169231      -0.11419947    -547.54803467
H       -0.63477452      -1.74876248      -6.02764538      -0.04170562       0.29566063       0.03406065       0.07919689      -0.03692957       0.08637334    -547.58660889
H        0.89251368      -2.45980018      -6.64231234       0.01696380       0.30097695      -0.21801302      -0.04271698      -0.02302895       0.02059358    -547.57904053
H        0.82920173      -0.72826551      -6.15862729      -0.24982208       0.14830483      -0.18912971      -0.03268058      -0.02105195       0.04695936    -547.57330322
H       -0.95836148      -3.28446120      -4.11455686       0.27793523      -0.07035900      -0.11102949       0.19050854       0.00318978      -0.09447997    -547.60913086
H        0.41782304      -3.76263841      -3.07221769       0.27445839       0.23805703       0.32338980       0.07785560       0.09386668      -0.02345528    -547.57897949
H        0.37961286      -4.26864433      -4.79787504       0.09471328      -0.15514100       0.33082480      -0.05024010       0.17916462       0.03722993    -547.56005859
H        2.96845720      -3.90946451      -5.33788236      -0.10145475       0.10548689       0.16080783      -0.07890063       0.06962039       0.13668364    -547.58386230
H        2.60523483      -4.25575010      -3.60953199      -0.07935829       0.07706647       0.15790373      -0.01220775       0.06596407      -0.09127817    -547.56988525
H        4.13026717      -3.43493324      -4.05695070       0.01414535      -0.22131571       0.04800472      -0.07248478      -0.00996739      -0.00505902    -547.57598877
H        3.26294550      -1.39244109      -6.05112301       0.18148817      -0.14798873      -0.02505693      -0.04519017       0.03151737       0.08495516    -547.57171631
H        4.18088256      -1.00682629      -4.55563392      -0.10647271       0.27281839       0.10972607      -0.04740864       0.03826177      -0.02863018    -547.60028076
H        2.67417845      -0.11417419      -4.93020693       0.03997725      -0.15607174       0.09195694       0.10593612      -0.11557728      -0.01367020    -547.59606934
H        3.02539648      -0.49432098      -0.61409550      -0.13024043      -0.02250904      -0.10617702      -0.09465431       0.00103720      -0.03514326    -547.50561523
H       -0.68309663       2.76415735       6.33997754       0.14184683       0.09754852      -0.02362976      -0.11795571      -0.03408827      -0.08959623    -547.57666016
H       -2.39569410       2.35285799       6.67494649       0.09298074      -0.17034123      -0.23317795       0.08013939       0.01045001      -0.10318102    -547.57739258
H       -1.98028097       3.48659246       5.34204841       0.10395649       0.03758348       0.12178208       0.03156377      -0.13354820       0.03366954    -547.56542969
H        0.12888980       0.46904368       5.92231158       0.41061035       0.15338325      -0.14362568      -0.10081615      -0.03227921      -0.04186704    -547.60949707
H       -0.82626640      -0.68532049       4.94031305       0.18687948      -0.21942689      -0.06442673      -0.02842006       0.11254697       0.07439773    -547.58898926
H       -1.46167562      -0.11127992       6.52251611      -0.00279340       0.29381326      -0.11008296       0.04600853       0.04668151      -0.10351814    -547.57073975
H       -4.28862812       2.56270622       4.83014955      -0.11657769       0.00922196      -0.08826655       0.08520245      -0.05759060      -0.10021502    -547.56890869
H       -4.58047353       1.92136652       3.17701967       0.20120010      -0.15396109      -0.16828884       0.09444560       0.01415465       0.10263549    -547.59820557
H       -3.22396808       3.05449231       3.46623168      -0.05231834      -0.06581623       0.34312188      -0.06688186      -0.11165929       0.04022858    -547.58941650
H       -3.99724752       0.13909939       5.82838941       0.16745480       0.03872509      -0.18261709       0.06490192       0.00946644      -0.10411508    -547.58758545
H       -3.09337581      -1.06582286       4.84403144       0.13814117      -0.15049283      -0.23867992      -0.02349942       0.10111350      -0.01941118    -547.56689453
H       -4.59490688      -0.33348031       4.20507013       0.19890087       0.08084827       0.17954668       0.11258765       0.04074202       0.04284551    -547.57745361
H       -1.98105815       0.13878571       0.35357324       0.04395352       0.15158887      -0.09276963       0.15194999       0.06724539      -0.01185410    -547.54711914
H        0.08972525       1.75148076      -2.86190645      -0.18202637       0.10642149      -0.12560192       0.03382795       0.01239375       0.24479163    -547.55242920
H        1.35643551       3.49035690      -1.77695841      -0.10841614      -0.09290024       0.00739616      -0.10400485      -0.19808820       0.14315285    -547.51135254
60
Properties=species:S:1:pos:R:3:momenta:R:3:forces:R:3:energies:R:1 Coordinates=T from=T ORCA-job=T get_bvl_bvl_rxn1_TS=T energy=-32855.028415820314 free_energy=-32855.028415820314 pbc="F F F"
C        0.48312727      -1.70650223      -5.89433326      -0.05200471       0.91065916      -0.17684860      -0.55714816       0.82435733      -0.34816027    -547.63867188
C        0.88223383      -2.09748915      -4.50342250       0.22552589      -0.12914287       0.19701155      -0.82445371      -1.39855099       0.56060719    -547.74499512
O        0.37812409      -1.13094739      -3.56566328       0.78665954      -0.41019658       0.17854569       0.62616718       0.13297594       0.38904509    -547.35681152
C        0.17607804      -3.43662696      -4.00767675       0.73758778       0.55393004       0.67668850       0.02562219       1.04811788      -1.69668365    -547.53576660
C        2.39682154      -2.16083053      -4.18600405       0.08529377       0.29166820      -0.64073215       0.05485308       0.73266107      -0.66352397    -547.76690674
C        3.01913666      -3.49855654      -4.28269460      -0.63354028       0.01634514       0.11050490      -0.52568263      -0.94773573      -0.52090329    -547.63659668
C        3.15204698      -1.16441613      -5.06949144      -0.28041413      -0.35662672      -0.42009210      -0.31272545       0.69831383       0.92292535    -547.57037354
O        2.45002264      -1.72366779      -2.81861904       0.69586797       0.10872568      -0.49550193       0.31904978      -0.03000122       0.27982393    -547.44042969
B        1.29850585      -1.06328398      -2.51749438      -0.62196810       0.11813846       0.53019152      -1.14318073       1.23691916       0.10076552    -547.59405518
C        0.99834065      -0.16774629      -1.21388962      -0.19689235      -0.33177505      -0.20588022       0.18318640      -1.27666676      -1.87028825    -547.51135254
C        2.07541684      -0.00009713      -0.36319998      -0.04515018      -0.10770278       0.09841597      -0.49082100       0.01550156       0.45430297    -547.62408447
C        2.07457310       0.81610052       0.76202244      -0.25016846      -0.62352749      -0.23092545       0.76600194       0.17398539      -0.39345279    -547.56500244
H        3.03980546       1.10162174       1.15569681       0.16622555       0.11238902       0.05119516       0.41577882      -0.14611466       0.34860069    -547.48101807
C        0.95902616       1.67836796       1.23886043      -1.05458618      -0.08215581      -0.15839647      -0.74426067       0.43492696       0.37085745    -547.66833496
H        1.09640830       2.16685574       2.19714094       0.04328892      -0.26932254       0.19094375       0.48305112      -0.41554224       0.52805191    -547.52355957
C       -0.41498740       1.05956063       1.33427007      -0.38962978      -0.80899527      -0.55995246      -0.19551097       0.15958720      -1.25494480    -547.76934814
B       -1.20339417       1.14470154       2.65001513       0.22893569       0.30797889      -0.11924952       1.02598488       0.05730037       0.35395500    -547.72222900
O       -0.65927432       1.72943541       3.77686266      -0.08291432      -0.36706115      -0.55082550      -0.39318714       0.25607225       0.06746940    -547.33453369
C       -1.53276290       1.40488446       4.89059194       0.34944090      -0.05024569      -0.94152098      -0.07667644      -0.51764083      -0.77029473    -547.67645264
C       -1.61822030       2.55177100       5.86330868       0.23135055      -0.37164963      -0.00947280      -0.83038414       0.19060609       0.06226495    -547.66052246
C       -0.89025560       0.19648789       5.57944992      -0.31207207       0.38885686      -0.33921699      -0.95310301       0.20582132       0.45512843    -547.58764648
C       -2.92213379       1.02800001       4.15665115       0.24857529       0.55160389       0.07777998       1.22254968       0.54293776       0.26630631    -547.67956543
C       -3.84347904       2.23716352       3.88711818      -0.15364871       0.16368370      -0.24656038       1.09838903      -0.12917258      -0.23444851    -547.63531494
C       -3.65149499      -0.10068170       4.81412709      -0.01052209       0.62216985       0.12930038      -1.37229979       0.22066282       0.18158183    -547.62860107
O       -2.37155372       0.52552928       2.91153003      -0.18539706      -0.56909745       0.92133542      -1.21646094       0.14777613      -0.00639968    -547.43109131
C       -0.99150917       0.53295272       0.22602054      -0.33565822      -0.19485116      -0.18835538      -0.26109576       0.25719643      -0.37983653    -547.56353760
C       -0.36337201       0.47396190      -1.15589665       0.10562572       0.42792199      -0.15122858       0.55488861       0.22273889       0.82795960    -547.70721436
H       -0.96457329       0.02712583      -1.94036959      -0.03267997      -0.03079114       0.02993169      -0.40817147      -0.24475719       0.15638870    -547.55798340
C        0.22525982       1.73127165      -1.72730382      -0.46054191      -0.18224551       0.73713873      -0.72396636      -0.81565148       0.24406207    -547.63049316
C        0.96171577       2.68297578      -1.06924571       0.36160992       0.66124791       0.48026869      -0.09733153       1.26398015      -1.43950260    -547.73889160
C        1.34110513       2.74080825       0.23097524      -0.09616834      -0.35584593       0.30008108       0.07449239      -0.95021933       0.50914180    -547.64581299
H        2.07826463       3.48811982       0.52281728       0.08918924       0.12711020       0.00989627      -0.07140505       0.16769169       0.08806114    -547.53491211
H       -0.60580998      -1.68560304      -5.95979553      -0.14509083      -0.26023570       0.09838765      -0.03038992      -0.39611715      -0.11129428    -547.56390381
H        0.90011823      -2.26872609      -6.72155509      -0.00184607      -0.08346871       0.01236001       0.00818443      -0.51869577       0.19657426    -547.56536865
H        0.73075580      -0.67812069      -6.15943012       0.21580022       0.21905363       0.24051209       0.33574662       0.10645518       0.38512227    -547.53784180
H       -0.92076757      -3.32150162      -4.11577483       0.30113914      -0.06127580       0.17430874       0.57852727      -0.08292666       0.19171059    -547.59619141
H        0.47578125      -3.45981216      -2.99474261      -0.11090196       0.22737349       0.28749170       0.02194282      -0.40526325       1.33609390    -547.57806396
H        0.51368803      -4.35751358      -4.50051050       0.14647119      -0.00500486       0.30301179      -0.13551329       0.34380257      -0.05549477    -547.55780029
H        2.87280618      -3.88472075      -5.31533213      -0.04566788      -0.01228911       0.14273060       0.18979184       0.00350768       0.56852376    -547.55261230
H        2.51998236      -4.14801498      -3.57349895      -0.15766859      -0.09772287       0.10259632       0.02870523      -0.37842369       0.02071202    -547.56945801
H        4.07181885      -3.52341451      -4.04507099       0.03370852       0.07567152      -0.01875014       0.36195406       0.32012218      -0.01398834    -547.59674072
H        3.36493004      -1.47709957      -6.09377332       0.03472964      -0.08204493      -0.02218607      -0.16021265      -0.12128896       0.21697548    -547.59973145
H        4.06337346      -0.92719725      -4.53852588       0.07381224      -0.09562345      -0.04178931       0.63190585      -0.14211182      -0.08480462    -547.55712891
H        2.58961417      -0.22741479      -5.04034127      -0.17078568      -0.12722151      -0.39420913      -0.02966486       0.10885234      -0.37970734    -547.56652832
H        2.97526773      -0.51496795      -0.69351737      -0.00420759       0.09395509       0.01899077       0.21152514       0.17723575       0.22549310    -547.54107666
H       -0.65950936       2.78170048       6.32664398       0.19107437      -0.01042206       0.14962389       0.05103962      -0.16052495       0.02746214    -547.59222412
H       -2.33845856       2.24603855       6.65061358       0.14961471       0.09058608       0.07406899       0.36818913       0.44177306      -0.22819614    -547.56512451
H       -1.94440787       3.48329379       5.37281497      -0.10352954       0.00303977      -0.08926139      -0.04458437      -0.36326250       0.17989112    -547.56341553
H        0.11549647       0.49643290       5.82077696       0.35784536       0.14797105       0.12568821       0.79480594       0.13003817       0.31077975    -547.59063721
H       -0.80674769      -0.71532445       4.98643002      -0.18642129      -0.16294080      -0.12023246      -0.27734774      -0.00654259      -0.25777477    -547.58404541
H       -1.44870880      -0.00000865       6.51721174       0.17784980      -0.03135158      -0.07032213       0.29062662      -0.16249788      -0.29101235    -547.56134033
H       -4.48780117       2.46031644       4.75450107      -0.21674690      -0.19690059      -0.11802196       0.37518746      -0.04113381      -0.39692608    -547.58782959
H       -4.43842212       1.93011923       3.01924680       0.00752397       0.20314956      -0.15963675      -0.17086600       0.33358777       0.19710712    -547.57891846
H       -3.19619336       3.10975286       3.61204851      -0.13285701      -0.08495462       0.07592585      -0.76885569      -0.52591914       0.14764975    -547.57128906
H       -3.90654555       0.14720971       5.88183600       0.12080641      -0.12188193      -0.00862906       0.31307545      -0.36889142      -0.69862807    -547.58007812
H       -3.05778511      -0.99448738       4.69073403       0.20983240      -0.19343940      -0.05291879       0.11655972      -0.39117944       0.36971441    -547.57788086
H       -4.61634936      -0.27371790       4.26829212       0.04423453       0.10666579       0.18071477       0.63290280       0.08555295       0.38134444    -547.55377197
H       -2.04134405       0.20014373       0.27656761       0.04791944       0.04648321      -0.08792482       0.33194423      -0.06422456       0.05894627    -547.53558350
H        0.01350069       1.87718070      -2.77559155      -0.05083381       0.19825155      -0.18872933       0.15106079       0.00418944      -0.29922837    -547.53845215
H        1.29305803       3.48068809      -1.75365963       0.05297534       0.09338099       0.10173021       0.17160958      -0.04419079       0.41409454    -547.49102783
60
Properties=species:S:1:pos:R:3:momenta:R:3:forces:R:3:energies:R:1 Coordinates=T from=T ORCA-job=T get_bvl_bvl_rxn1_TS=T energy=-32854.493621459966 free_energy=-32854.493621459966 pbc="F F F"
C        0.46262857      -1.63717525      -5.90624094      -0.16901329       0.24849357       0.22747520       0.49052179      -1.87252629       2.08379149    -547.58538818
C        0.88139772      -2.13790970      -4.47889539      -0.09961546      -0.32378727       0.18331001      -0.33267996       1.35364544      -0.58609265    -547.68780518
O        0.42304996      -1.13958077      -3.55498226       0.47301407      -0.08963374       0.19554922      -0.80310458       0.32853487      -0.24104671    -547.37127686
C        0.26878451      -3.36823391      -3.93455131       0.69766733       0.68555705       1.16435949      -2.48155332      -1.14037383      -1.12401307    -547.58825684
C        2.39413999      -2.12482065      -4.23503328      -0.23309787       0.38192102      -0.18958978      -0.27375665      -0.41329187       1.47956514    -547.73107910
C        2.96905466      -3.51799929      -4.25943495      -0.40891841      -0.39310766      -0.04722883       0.59158254       0.22016707      -1.45258951    -547.58575439
C        3.14231511      -1.16332624      -5.08285243       0.03769279       0.13095185      -0.52756955       0.22385234      -0.51431400      -1.18752980    -547.62512207
O        2.47306405      -1.70081390      -2.83464140      -0.18498584       0.80741829       0.00039647      -1.23391354       0.63867795       0.21587294    -547.25988770
B        1.25703004      -1.03627014      -2.49151371       0.21969037       0.05471683      -0.34371556       1.97746670      -0.77723360      -1.24931538    -547.60638428
C        0.99091095      -0.22028325      -1.25949770       0.14290526      -0.58802547      -0.37223308       0.55755335       0.64329630       0.99393064    -547.62829590
C        2.05352808      -0.01863253      -0.35867888      -0.35046899      -0.42399743      -0.31753251       0.00752340      -0.01812701      -0.48884523    -547.59637451
C        2.08800317       0.79831149       0.74989080      -0.12249656       0.32906181      -0.07881826      -1.60543954       0.90810812      -0.35253263    -547.47619629
H        3.02495138       1.01971038       1.20944587       0.13080078      -0.15234623       0.22090249       0.59930480      -0.02073662       0.34060374    -547.54919434
C        0.89355258       1.67251174       1.25304690      -0.23506284      -0.56281603       0.43197801       1.43430185      -1.77901661      -0.00735277    -547.65777588
H        1.18817107       1.84847713       2.27455919       0.01807541      -0.12277125       0.03894380      -0.27005613       0.86702579       0.39557141    -547.51898193
C       -0.44943348       1.01326531       1.26997351      -0.30890618      -0.09911386      -0.53910889       0.06067901       1.17426431       1.04514611    -547.73004150
B       -1.18201821       1.14345437       2.63201224      -0.17075099      -0.67979191      -0.27651424      -0.95483458      -1.35968232       0.07084384    -547.63452148
O       -0.65665114       1.71129354       3.75034902       0.20336965      -0.03741997      -0.54760930       0.25835559       0.64910203      -0.21727069    -547.43249512
C       -1.51465068       1.40300412       4.83377773      -0.09315657       0.24022589       0.08158768      -0.42817134       0.62854296       1.85565484    -547.72595215
C       -1.60155077       2.53500757       5.85020021       0.00787518      -0.18692881      -0.43674956      -1.32373583      -0.22137132      -0.60887831    -547.60369873
C       -0.88393336       0.22771612       5.54633109      -0.28534124       0.35073144      -0.35585281      -1.98908877      -0.78075856       0.20318414    -547.56756592
C       -2.88521730       1.07274446       4.16361089       0.35050003       0.23446026       0.02997219      -0.27761778      -0.94283611       0.06577940    -547.76184082
C       -3.84388132       2.21904892       3.86032086       0.26007836      -0.09945820      -0.35446802       0.56255287       1.51808548      -0.04060332    -547.63043213
C       -3.64052133      -0.07366962       4.82597157       0.06284437       0.61439943       0.26765144      -1.03728628       0.96621644       0.95690835    -547.56091309
O       -2.39126859       0.49841337       2.95233239      -0.10297437      -0.07430795       0.27024646       0.67145008       0.74975526      -1.30715287    -547.27478027
C       -1.01819782       0.52593401       0.18768830      -0.34285867      -0.03334544      -0.83866583      -0.51467353      -0.27848455      -0.21594994    -547.62713623
C       -0.34693422       0.49126037      -1.13575294       0.12257132      -0.21023423       0.67757570       0.03635605      -0.47920054       0.42290664    -547.69665527
H       -1.04967742       0.00920234      -1.79771089      -0.11372419       0.08717166       0.15013102      -0.05655464       0.07128541      -0.59148842    -547.53564453
C        0.19284991       1.74647830      -1.69241985      -0.07450437       0.82928048       0.48613199       1.01244009       1.22070134       0.26684418    -547.69207764
C        0.95999303       2.73681333      -1.06576128      -0.36546447       0.28774171      -0.04983904      -0.43992496      -0.62840670       0.45648104    -547.68499756
C        1.34439660       2.69452616       0.27794662      -0.19042969      -0.95219168       0.67300166      -0.63235784      -0.59632868      -0.54898405    -547.62622070
H        1.99764163       3.47924536       0.60293498       0.01157016       0.02225196       0.27536409       0.45252341       0.32719630       0.38354298    -547.56268311
H       -0.58725993      -1.83290727      -5.98182327      -0.05937885       0.12697077      -0.14695084      -0.77453649       0.59237492      -0.14323381    -547.57275391
H        0.90453715      -2.32230351      -6.60046206       0.09962327       0.08831622       0.08074739       0.55828851       0.03084945      -0.76261967    -547.53051758
H        0.80278694      -0.62434133      -5.93186273      -0.13535633       0.05365720       0.04878659      -0.25708327       0.51318139      -0.55435920    -547.60955811
H       -0.86360832      -3.34421538      -4.01692578       0.27639159      -0.00330528      -0.03566492       1.13427401       0.03031712      -0.29795763    -547.52026367
H        0.38417917      -3.40615960      -2.88692748       0.06448614      -0.06524279       0.10243030       0.62250543      -0.11008568       1.41398299    -547.54797363
H        0.60930100      -4.33250303      -4.32875243       0.01805170       0.06959130       0.06335846      -0.16361737       0.28330833      -0.19027317    -547.57788086
H        2.86005914      -3.99714859      -5.25740875       0.02242159      -0.07900758       0.09940140       0.04721453       0.33027568       0.58040845    -547.55200195
H        2.54308547      -4.18019618      -3.54405852       0.01597048      -0.06706529       0.23203797      -0.26102293      -0.30468214       0.63382840    -547.58551025
H        4.01951352      -3.40534392      -4.06084393      -0.01669984       0.08031107       0.02245529       0.59361279      -0.22575258       0.09688557    -547.58099365
H        3.33856071      -1.67375915      -6.03842514      -0.07938039      -0.24510368       0.11667173      -0.05521093       0.08253419      -0.01811888    -547.52917480
H        4.12020283      -0.95789316      -4.67410653       0.06742734       0.16429752      -0.14364425       0.26551756       0.32902130       0.35212988    -547.59405518
H        2.57460839      -0.28087190      -5.34867255       0.17152100       0.08038707      -0.12522909       0.11677177       0.43465021       0.38504565    -547.59649658
H        3.04224122      -0.41290787      -0.62820597      -0.05033118       0.06611716       0.06109939      -0.47229785      -0.17152816      -0.17274779    -547.50061035
H       -0.64482172       2.71921920       6.26686186       0.20388742       0.07287519      -0.07245146       1.00115967       0.54665601       0.33196321    -547.58758545
H       -2.24570425       2.32317648       6.71363527       0.10643964      -0.07693548      -0.02011225       0.12686840      -0.34076172      -0.38087767    -547.54772949
H       -2.01921329       3.42133137       5.39415587      -0.03591910       0.13810246      -0.00232977       0.19466159       0.39923927      -0.09346604    -547.57525635
H        0.12497421       0.40058909       5.77648111       0.32530198      -0.15924913      -0.11280376       1.78664243       0.40636808       0.14954473    -547.58312988
H       -0.95734937      -0.63773889       4.91300494      -0.07135599      -0.04669613      -0.22126498       0.10683431      -0.63070917      -0.38203937    -547.57196045