38
# ORCA AIMD Position Step 0, t=0.00 fs, E_Pot=-772.15010867 Hartree, Unit is Angstrom
 C      1.6279600073      0.6482070029     -0.7566400034
 C      2.4197610108      1.7250580077     -0.0363070002
 C      3.3413230150      1.4761830066      0.9220420041
 C      3.7054710166      0.1443880006      1.4341970064
 C      2.6658100119     -0.9814380044      1.5912520071
 C      3.7784720169     -1.1013500049      0.5315530024
 C      3.4922580156     -1.0561280047     -0.9131050041
 C      2.5453730114     -0.2949970013     -1.5090240068
 C      1.2398440056     -0.8285300037      1.2467050056
 C      0.7121560032     -0.1125640005      0.2132630010
 C     -0.7623800034      0.0433440002     -0.0110630000
 C     -1.2240880055     -0.0497980002     -1.3379540060
 C     -2.6156700117      0.2350600011     -1.8448890083
 C     -3.3307070149      1.4262250064     -1.2738160057
 C     -3.5225410158      1.6221530073      0.0416590002
 C     -3.0447320136      0.6790320030      1.1049110049
 C     -1.5892750071      0.2801000013      1.1108140050
 C     -3.3818250151     -0.7826230035      1.0128660045
 C     -3.4351790154     -1.5499050069     -0.1624840007
 C     -3.0699800137     -1.1450670051     -1.4455060065
 H      0.9759570044      1.1535110052     -1.4910070067
 H      2.2303190100      2.7720580124     -0.3270470015
 H      3.8737190173      2.3299850104      1.3745140062
 H      4.4726740200      0.1570040007      2.2241410100
 H      2.8421110127     -1.6102400072      2.4783100111
 H      4.5830690205     -1.7984830081      0.8118800036
 H      4.1107390184     -1.7146070077     -1.5452320069
 H      2.4257380109     -0.3581410016     -2.6044060117
 H      0.5422030024     -1.3695260061      1.9068590085
 H     -0.5120360023     -0.4287260019     -2.0872520093
 H     -2.5887400116      0.3089600014     -2.9474770132
 H     -3.6978600166      2.1795830098     -1.9882860089
 H     -4.0433270181      2.5315960113      0.3814820017
 H     -3.3180190149      1.0619310048      2.1042390094
 H     -1.1122610050      0.2220300010      2.1005530094
 H     -3.6041940161     -1.2886600058      1.9639220088
 H     -3.6928610165     -2.6150110117     -0.0389690002
 H     -3.0392820136     -1.9106120086     -2.2346950100
38
# ORCA AIMD Position Step 1, t=0.50 fs, E_Pot=-772.14703514 Hartree, Unit is Angstrom
 C      1.6321244078      0.6466197648     -0.7552533203
 C      2.4197660984      1.7309487794     -0.0290590486
 C      3.3460510962      1.4746311155      0.9220032276
 C      3.7112163296      0.1384929274      1.4370467063
 C      2.6631415211     -0.9799839349      1.5890138974
 C      3.7761070704     -1.0997385792      0.5297384037
 C      3.4946894555     -1.0599544444     -0.9148561993
 C      2.5492696513     -0.2986841596     -1.5098280871
 C      1.2364887086     -0.8285011271      1.2464004783
 C      0.7142683917     -0.1206751080      0.2113485807
 C     -0.7596118157      0.0406593176     -0.0147338165
 C     -1.2223636414     -0.0537845759     -1.3372789129
 C     -2.6102090720      0.2316733899     -1.8445552854
 C     -3.3343144595      1.4243411343     -1.2759212938
 C     -3.5214914283      1.6200211561      0.0443854261
 C     -3.0417828037      0.6753629152      1.1041973340
 C     -1.5875794302      0.2776034920      1.1109112317
 C     -3.3820252713     -0.7814763343      1.0075026456
 C     -3.4352605553     -1.5451018963     -0.1585452617
 C     -3.0674173683     -1.1472088041     -1.4470989383
 H      0.9612233050      1.1416718696     -1.4968664621
 H      2.2211086556      2.7683663301     -0.3261764841
 H      3.8777087460      2.3376601761      1.3722110674
 H      4.4807304241      0.1637366623      2.2339338348
 H      2.8445160637     -1.6191267572      2.4733944392
 H      4.5866346340     -1.7760394082      0.8166390352
 H      4.1069024008     -1.7207573134     -1.5463916528
 H      2.4254811028     -0.3616515270     -2.5985721804
 H      0.5299995304     -1.3664626193      1.9074302352
 H     -0.5053188461     -0.4137005224     -2.0794990184
 H     -2.5986858538      0.3095429540     -2.9448204919
 H     -3.6948605566      2.1892059322     -1.9965010520
 H     -4.0324764124      2.5394062216      0.3637072673
 H     -3.3198957924      1.0814759251      2.1159884705
 H     -1.1048032445      0.2166926572      2.1130128892
 H     -3.6115056772     -1.2944625339      1.9769150164
 H     -3.7009359283     -2.6217667772     -0.0586597428
 H     -3.0468894360     -1.9190342980     -2.2411599381
38
# ORCA AIMD Position Step 2, t=1.00 fs, E_Pot=-772.14184315 Hartree, Unit is Angstrom
 C      1.6362194505      0.6450563791     -0.7539158879
 C      2.4198484366      1.7367759068     -0.0217422880
 C      3.3507093656      1.4731588722      0.9219011301
 C      3.7169635344      0.1326183989      1.4399166527
 C      2.6605491182     -0.9785707101      1.5868230127
 C      3.7737479309     -1.0981117980      0.5279792422
 C      3.4970300395     -1.0637078967     -0.9166835232
 C      2.5532594156     -0.3024440425     -1.5105659360
 C      1.2330323903     -0.8284357299      1.2460291190
 C      0.7164417361     -0.1288326879      0.2095263127
 C     -0.7569401594      0.0379817669     -0.0183785854
 C     -1.2206210355     -0.0577623821     -1.3365256544
 C     -2.6047696049      0.2282724758     -1.8442412252
 C     -3.3379460823      1.4225193618     -1.2778960384
 C     -3.5204255762      1.6178996589      0.0468947911
 C     -3.0388521312      0.6717502047      1.1036157815
 C     -1.5857754476      0.2750813131      1.1110299136
 C     -3.3822406871     -0.7804155303      1.0022861281
 C     -3.4353141942     -1.5403753447     -0.1547189670
 C     -3.0648596582     -1.1494072235     -1.4486350290
 H      0.9478707112      1.1291369862     -1.5014122968
 H      2.2121914317      2.7637222370     -0.3248982362
 H      3.8808527077      2.3438324557      1.3692626038
 H      4.4873857437      0.1701921833      2.2423148923
 H      2.8465244319     -1.6269904814      2.4670231556
 H      4.5893823395     -1.7532424972      0.8210849040
 H      4.1024394912     -1.7261917005     -1.5468233727
 H      2.4253734020     -0.3651346723     -2.5917329736
 H      0.5188845105     -1.3626555751      1.9070252775
 H     -0.4991747458     -0.3983737837     -2.0713878351
 H     -2.6085017040      0.3100148095     -2.9410329470
 H     -3.6912669799      2.1974173447     -2.0033986628
 H     -4.0211206252      2.5461615209      0.3458459151
 H     -3.3211384344      1.0998681461      2.1253560216
 H     -1.0984301661      0.2114883648      2.1232966920
 H     -3.6181065045     -1.2989940821      1.9874957411
 H     -3.7083082778     -2.6264219840     -0.0781745566
 H     -3.0544584340     -1.9261456208     -2.2462468725
38
# ORCA AIMD Position Step 3, t=1.50 fs, E_Pot=-772.13563175 Hartree, Unit is Angstrom
 C      1.6402165211      0.6435215829     -0.7526482399
 C      2.4199912463      1.7424628870     -0.0143757726
 C      3.3553136574      1.4717876176      0.9217598967
 C      3.7227023468      0.1268256839      1.4428048019
 C      2.6580474988     -0.9772254373      1.5847044849
 C      3.7713865609     -1.0964469831      0.5262765069
 C      3.4992747703     -1.0673787167     -0.9185760158
 C      2.5573350265     -0.3062584694     -1.5111949927
 C      1.2294790342     -0.8283635087      1.2456275716
 C      0.7186661634     -0.1370029977      0.2077594981
 C     -0.7543735615      0.0353065458     -0.0219455992
 C     -1.2188844583     -0.0617133851     -1.3356831968
 C     -2.5993905252      0.2248747369     -1.8439398159
 C     -3.3415894717      1.4207650668     -1.2797324933
 C     -3.5193286421      1.6157836348      0.0491123004
 C     -3.0359632259      0.6682621959      1.1032390608
 C     -1.5838120400      0.2725261166      1.1112045924
 C     -3.3824984421     -0.7794671737      0.9973667438
 C     -3.4353507225     -1.5358142486     -0.1511100298
 C     -3.0623085312     -1.1516778181     -1.4501131994
 H      0.9364492711      1.1158352731     -1.5042356046
 H      2.2035812929      2.7586399268     -0.3232198527
 H      3.8830990735      2.3482113419      1.3656465685
 H      4.4924274887      0.1761756570      2.2490051984
 H      2.8480355877     -1.6336997074      2.4590725922
 H      4.5916350096     -1.7306704357      0.8252771035
 H      4.0975356955     -1.7310892283     -1.5466311399
 H      2.4253651978     -0.3686395812     -2.5844279112
 H      0.5090907815     -1.3580521377      1.9055678340
 H     -0.4932564944     -0.3830267146     -2.0634367043
 H     -2.6179755433      0.3103283739     -2.9363699154
 H     -3.6869548788      2.2038124065     -2.0086190689
 H     -4.0093799067      2.5519609206      0.3282460603
 H     -3.3214819102      1.1164799047      2.1314731430
 H     -1.0934648908      0.2064506601      2.1307128928
 H     -3.6237790426     -1.3017902877      1.9947051077
 H     -3.7148586603     -2.6283729555     -0.0972186927
 H     -3.0619506702     -1.9316553985     -2.2496358685
38
# ORCA AIMD Position Step 4, t=2.00 fs, E_Pot=-772.12942825 Hartree, Unit is Angstrom
 C      1.6440973646      0.6420115731     -0.7514604353
 C      2.4201796281      1.7479332369     -0.0069730786
 C      3.3598769443      1.4705283134      0.9215996484
 C      3.7284156143      0.1211727254      1.4457019128
 C      2.6556474704     -0.9759673378      1.5826720664
 C      3.7690106885     -1.0947212098      0.5246279918
 C      3.5014187571     -1.0709568478     -0.9205180390
 C      2.5614901549     -0.3101092970     -1.5116699463
 C      1.2258395096     -0.8283099966      1.2452280953
 C      0.7209313652     -0.1451549727      0.2060083655
 C     -0.7519175120      0.0326269764     -0.0253853808
 C     -1.2171787886     -0.0656223135     -1.3347405730
 C     -2.5941077118      0.2214947030     -1.8436381294
 C     -3.3452283946      1.4190723104     -1.2814188558
 C     -3.5181845421      1.6136635958      0.0509704484
 C     -3.0331309559      0.6649565281      1.1031153961
 C     -1.5816480200      0.2699302337      1.1114527081
 C     -3.3828195158     -0.7786424089      0.9928678290
 C     -3.4353779467     -1.5314913849     -0.1478222724
 C     -3.0597643320     -1.1540274630     -1.4515249324
 H      0.9273951785      1.1017733878     -1.5050528936
 H      2.1952688421      2.7536722158     -0.3211707379
 H      3.8844669617      2.3506255679      1.3613963461
 H      4.4957572085      0.1815031766      2.2538428107
 H      2.8489755979     -1.6392066561      2.4495293961
 H      4.5937484169     -1.7088969245      0.8292905980
 H      4.0924096846     -1.7356746013     -1.5459607856
 H      2.4253959760     -0.3722202825     -2.5772446977
 H      0.5007611886     -1.3526592083      1.9030584919
 H     -0.4871979853     -0.3679189557     -2.0561629173
 H     -2.6269079752      0.3104441986     -2.9311450403
 H     -3.6818597451      2.2081104742     -2.0119200780
 H     -3.9973839486      2.5569496978      0.3112440886
 H     -3.3207365982      1.1308010451      2.1337530238
 H     -1.0901224006      0.2015995480      2.1347937983
 H     -3.6283734198     -1.3025411172      1.9978776114
 H     -3.7205124989     -2.6272035650     -0.1154894841
 H     -3.0693242594     -1.9353872136     -2.2511273327
38
# ORCA AIMD Position Step 5, t=2.50 fs, E_Pot=-772.12402050 Hartree, Unit is Angstrom
 C      1.6478534282      0.6405150349     -0.7503523314
 C      2.4204001027      1.7531122520      0.0004548226
 C      3.3644077864      1.4693817673      0.9214363648
 C      3.7340776655      0.1157150627      1.4485904365
 C      2.6533565428     -0.9748078219      1.5807287825
 C      3.7666077558     -1.0929143554      0.5230301018
 C      3.5034576651     -1.0744318876     -0.9224898168
 C      2.5657178720     -0.3139776152     -1.5119465156
 C      1.2221327284     -0.8282962077      1.2448580166
 C      0.7232262406     -0.1532582824      0.2042312254
 C     -0.7495751839      0.0299352023     -0.0286502709
 C     -1.2155263615     -0.0694769353     -1.3336903090
 C     -2.5889552294      0.2181447126     -1.8433188720
 C     -3.3488420830      1.4174241385     -1.2829386013
 C     -3.5169767861      1.6115271189      0.0524090832
 C     -3.0303631737      0.6618811293      1.1032707899
 C     -1.5792527761      0.2672863239      1.1117748548
 C     -3.3832187532     -0.7779391245      0.9888878666
 C     -3.4354002074     -1.5274629845     -0.1449571094
 C     -3.0572266094     -1.1564533137     -1.4528537012
 H      0.9210275883      1.0870337965     -1.5037066836
 H      2.1872313289      2.7493690872     -0.3187908523
 H      3.8850453274      2.3510245422      1.3566010645
 H      4.4973894841      0.1860043359      2.2567831035
 H      2.8492987984     -1.6435483688      2.4384916219
 H      4.5960714097     -1.6884653917      0.8332008502
 H      4.0873013706     -1.7402031925     -1.5449868896
 H      2.4253995934     -0.3759319128     -2.5707741958
 H      0.4939474311     -1.3465447161      1.8995769101
 H     -0.4806580976     -0.3532745059     -2.0500415330
 H     -2.6351122785      0.3103302618     -2.9257120917
 H     -3.6759753947      2.2101572982     -2.0131779179
 H     -3.9852657462      2.5613016516      0.2951612122
 H     -3.3187805331      1.1424327707      2.1318608013
 H     -1.0885125247      0.1969421289      2.1352894433
 H     -3.6318021959     -1.3010755456      1.9966162843
 H     -3.7252422483     -2.6226928812     -0.1326817532
 H     -3.0765353226     -1.9372813850     -2.2506448716
38
# ORCA AIMD Position Step 6, t=3.00 fs, E_Pot=-772.11984638 Hartree, Unit is Angstrom
 C      1.6514849774      0.6390144293     -0.7493141024
 C      2.4206397396      1.7579291850      0.0078958865
 C      3.3689087623      1.4683390717      0.9212820090
 C      3.7396525312      0.1105069318      1.4514433774
 C      2.6511795556     -0.9737507786      1.5788679306
 C      3.7641695013     -1.0910122662      0.5214799674
 C      3.5053884081     -1.0777933867     -0.9244680649
 C      2.5700085875     -0.3178427126     -1.5119861593
 C      1.2183869099     -0.8283384229      1.2445395086
 C      0.7255384875     -0.1612811033      0.2023859779
 C     -0.7473482047      0.0272229972     -0.0316939886
 C     -1.2139437800     -0.0732677534     -1.3325323740
 C     -2.5839669679      0.2148359324     -1.8429623814
 C     -3.3524043302      1.4157931616     -1.2842700582
 C     -3.5156894713      1.6093609743      0.0533755955
 C     -3.0276622859      0.6590751876      1.1037107899
 C     -1.5766075079      0.2645884516      1.1121550364
 C     -3.3837048212     -0.7773442851      0.9855017991
 C     -3.4354180244     -1.5237684533     -0.1426117652
 C     -3.0546947286     -1.1589418855     -1.4540745443
 H      0.9175453763      1.0717744844     -1.5001667870
 H      2.1794457497      2.7462312904     -0.3161171054
 H      3.8849907176      2.3494782606      1.3514051240
 H      4.4974501470      0.1895249685      2.2578982211
 H      2.8489889320     -1.6468460682      2.4261685044
 H      4.5989004503     -1.6698636665      0.8370661044
 H      4.0824570287     -1.7449417587     -1.5438963774
 H      2.4253111045     -0.3798259598     -2.5655574281
 H      0.4886117560     -1.3398375504      1.8952819419
 H     -0.4733680219     -0.3392715638     -2.0454631390
 H     -2.6424131708      0.3099612908     -2.9204433957
 H     -3.6693526011      2.2099265538     -2.0123876331
 H     -3.9731563677      2.5651995837      0.2803015433
 H     -3.3155534747      1.1510816721      2.1256910760
 H     -1.0886403035      0.1924728658      2.1321669324
 H     -3.6340364535     -1.2973500742      1.9907742540
 H     -3.7290689578     -2.6148203754     -0.1484921745
 H     -3.0835393790     -1.9373954873     -2.2482364600
38
# ORCA AIMD Position Step 7, t=3.50 fs, E_Pot=-772.11693486 Hartree, Unit is Angstrom
 C      1.6550001686      0.6374870110     -0.7483263453
 C      2.4208853195      1.7623188145      0.0153322735
 C      3.3733749663      1.4673819249      0.9211455292
 C      3.7450919166      0.1056028350      1.4542230518
 C      2.6491198004     -0.9727930011      1.5770741691
 C      3.7616967060     -1.0890098846      0.5199778015
 C      3.5072102689     -1.0810315985     -0.9264263879
 C      2.5743470009     -0.3216805039     -1.5117611138
 C      1.2146412151     -0.8284486637      1.2442892628
 C      0.7278536093     -0.1691864660      0.2004309277
 C     -0.7452372119      0.0244828262     -0.0344696097
 C     -1.2124386354     -0.0769873092     -1.3312774006
 C     -2.5791794184      0.2115799679     -1.8425491090
 C     -3.3558819249      1.4141421003     -1.2853858692
 C     -3.5143083992      1.6071533570      0.0538250606
 C     -3.0250261019      0.6565702720      1.1044208176
 C     -1.5737065739      0.2618327001      1.1125598646
 C     -3.3842795469     -0.7768347115      0.9827611819
 C     -3.4354275942     -1.5204304940     -0.1408788517
 C     -3.0521688507     -1.1614681758     -1.4551536620
 H      0.9170249052      1.0562301730     -1.4945315307
 H      2.1719053240      2.7446638573     -0.3131688471
 H      3.8845237466      2.3461754989      1.3460077073
 H      4.4961742918      0.1919290550      2.2573763229
 H      2.8480597031     -1.6493017169      2.4128800834
 H      4.6024333468     -1.6535033695      0.8409084368
 H      4.0781159902     -1.7501465355     -1.5428724080
 H      2.4250771097     -0.3839449149     -2.5620312726
 H      0.4846262224     -1.3327296294      1.8904128058
 H     -0.4651724171     -0.3260441619     -2.0427002874
 H     -2.6486441315      0.3093170349     -2.9157050376
 H     -3.6620999878      2.2075222156     -2.0096654126
 H     -3.9611823593      2.5688112873      0.2669507227
 H     -3.3110563611      1.1565594639      2.1153622928
 H     -1.0904047534      0.1881751288      2.1256130531
 H     -3.6351070434     -1.2914516209      1.9804623032
 H     -3.7320636991     -2.6037778745     -0.1626225880
 H     -3.0902907626     -1.9359051762     -2.2440755306
38
# ORCA AIMD Position Step 8, t=4.00 fs, E_Pot=-772.11487619 Hartree, Unit is Angstrom
 C      1.6584159828      0.6359057891     -0.7473601005
 C      2.4211218112      1.7662279195      0.0227399831
 C      3.3777941215      1.4664837956      0.9210314972
 C      3.7503370596      0.1010548811      1.4568820835
 C      2.6471783344     -0.9719247087      1.5753251133
 C      3.7592021548     -1.0869124915      0.5185277539
 C      3.5089261057     -1.0841391358     -0.9283380872
 C      2.5787125488     -0.3254647895     -1.5112601123
 C      1.2109435470     -0.8286331312      1.2441179280
 C      0.7301557364     -0.1769351849      0.1983279240
 C     -0.7432419023      0.0217079822     -0.0369347040
 C     -1.2110069435     -0.0806303246     -1.3299491679
 C     -2.5746286046      0.2083881672     -1.8420618400
 C     -3.3592364415      1.4124241669     -1.2862546270
 C     -3.5128220566      1.6048959407      0.0537231022
 C     -3.0224482293      0.6543878853      1.1053654410
 C     -1.5705588814      0.2590183648      1.1129390018
 C     -3.3849378416     -0.7763789672      0.9806890160
 C     -3.4354208681     -1.5174517620     -0.1398385353
 C     -3.0496492536     -1.1639954983     -1.4560503579
 H      0.9193958755      1.0407102125     -1.4870411016
 H      2.1646300469      2.7449218837     -0.3099310551
 H      3.8839251298      2.3414228626      1.3406573721
 H      4.4939021000      0.1931073385      2.2555201378
 H      2.8465558956     -1.6511951388      2.3990441829
 H      4.6067338050     -1.6396925878      0.8447025963
 H      4.0744829618     -1.7560368850     -1.5420677196
 H      2.4246616949     -0.3883180641     -2.5604623035
 H      0.4817828293     -1.3254647489      1.8852792906
 H     -0.4560755878     -0.3136650546     -2.0418605428
 H     -2.6536522109      0.3083818386     -2.9118246309
 H     -3.6543785258      2.2031861970     -2.0052521077
 H     -3.9494541116      2.5722774735      0.2553667223
 H     -3.3053554097      1.1588006671      2.1012299304
 H     -1.0935895609      0.1840169518      2.1160561600
 H     -3.6351115388     -1.2836026837      1.9660624919
 H     -3.7343554020     -2.5899783790     -0.1747949284
 H     -3.0967501470     -1.9331059467     -2.2384630982
38
# ORCA AIMD Position Step 9, t=4.50 fs, E_Pot=-772.11291610 Hartree, Unit is Angstrom
 C      1.6617589986      0.6342400515     -0.7463766449
 C      2.4213318485      1.7696175959      0.0300882091
 C      3.3821479828      1.4656109231      0.9209415098
 C      3.7553208004      0.0969116289      1.4593648353
 C      2.6453543429     -0.9711305621      1.5735929116
 C      3.7567117718     -1.0847360704      0.5171385419
 C      3.5105444606     -1.0871136497     -0.9301776835
 C      2.5830784193     -0.3291673565     -1.5104913038
 C      1.2073492003     -0.8288933015      1.2440303721
 C      0.7324278882     -0.1844862011      0.1960422477
 C     -0.7413605644      0.0188924973     -0.0390509661
 C     -1.2096321123     -0.0841934536     -1.3285839822
 C     -2.5703504295      0.2052717625     -1.8414882247
 C     -3.3624248783      1.4105837177     -1.2868415853
 C     -3.5112219933      1.6025849457      0.0530467946
 C     -3.0199170164      0.6525380627      1.1064867538
 C     -1.5671879852      0.2561473573      1.1132245302
 C     -3.3856665583     -0.7759363974      0.9792754460
 C     -3.4353851945     -1.5148134482     -0.1395566248
 C     -3.0471361266     -1.1664770388     -1.4567184604
 H      0.9244380519      1.0255905380     -1.4780756149
 H      2.1576762559      2.7470831795     -0.3063446688
 H      3.8835235476      2.3356285719      1.3356419089
 H      4.4910660761      0.1929803253      2.2527355588
 H      2.8445498925     -1.6528687558      2.3851540020
 H      4.6117129803     -1.6286253873      0.8483692678
 H      4.0717122748     -1.7627733454     -1.5415876061
 H      2.4240555307     -0.3929589561     -2.5609141490
 H      0.4798007470     -1.3183295333      1.8802505397
 H     -0.4462431246     -0.3021584677     -2.0428862107
 H     -2.6572985590      0.3071421631     -2.9090617365
 H     -3.6463966020      2.1972946346     -1.9995101527
 H     -3.9380596758      2.5756906953      0.2457711297
 H     -3.2985884091      1.1578821574      2.0839052254
 H     -1.0978614210      0.1799500015      2.1041698800
 H     -3.6342245868     -1.2741792854      1.9482643434
 H     -3.7361337121     -2.5740618345     -0.1847638679
 H     -3.1028870722     -1.9294034005     -2.2318172504
38
# ORCA AIMD Position Step 10, t=5.00 fs, E_Pot=-772.11015962 Hartree, Unit is Angstrom
 C      1.6650664390      0.6324555164     -0.7453280678
 C      2.4214955102      1.7724664003      0.0373437033
 C      3.3864167143      1.4647245354      0.9208750177
 C      3.7599733941      0.0932151708      1.4616115866
 C      2.6436439734     -0.9703914541      1.5718469465
 C      3.7542623930     -1.0825050452      0.5158221912
 C      3.5120809838     -1.0899605274     -0.9319244560
 C      2.5874142400     -0.3327605445     -1.5094827285
 C      1.2039157662     -0.8292259815      1.2440261616
 C      0.7346540682     -0.1918025598      0.1935437173
 C     -0.7395891036      0.0160299864     -0.0407876002
 C     -1.2082857829     -0.0876757428     -1.3272279512
 C     -2.5663775295      0.2022408838     -1.8408220921
 C     -3.3654032727      1.4085576258     -1.2871123729
 C     -3.5095021643      1.6002207393      0.0517855486
 C     -3.0174137134      0.6510145221      1.1077040403
 C     -1.5636307960      0.2532235563      1.1133327622
 C     -3.3864442555     -0.7754572503      0.9784724836
 C     -3.4353035719     -1.5124726901     -0.1400788277
 C     -3.0446280184     -1.1688596140     -1.4571095992
 H      0.9317780596      1.0112975386     -1.4681492000
 H      2.1511327960      2.7510478806     -0.3023049577
 H      3.8836748587      2.3292692874      1.3312670357
 H      4.4881636904      0.1915008125      2.2495044282
 H      2.8421348748     -1.6547040576      2.3717345033
 H      4.6171433302     -1.6203821541      0.8517831930
 H      4.0698886315     -1.7704413842     -1.5414720438
 H      2.4232774559     -0.3978665709     -2.5632352335
 H      0.4783512863     -1.3116281300      1.8757275049
 H     -0.4359827618     -0.2915031204     -2.0455673712
 H     -2.6594623526      0.3055849712     -2.9075833120
 H     -3.6383929065      2.1903368187     -1.9929022287
 H     -3.9270581615      2.5790991593      0.2383395037
 H     -3.2909688412      1.1540476988      2.0642693895
 H     -1.1027763065      0.1759054380      2.0908617719
 H     -3.6327050648     -1.2637149937      1.9280741598
 H     -3.7376516982     -2.5568774141     -0.1923344468
 H     -3.1086875636     -1.9252918640     -2.2246510163
38
# ORCA AIMD Position Step 11, t=5.50 fs, E_Pot=-772.10591791 Hartree, Unit is Angstrom
 C      1.6683879758      0.6305143327     -0.7441567238
 C      2.4215916553      1.7747690673      0.0444730921
 C      3.3905810795      1.4637830689      0.9208315007
 C      3.7642261214      0.0899992722      1.4635611920
 C      2.6420420237     -0.9696865348      1.5700552324
 C      3.7518995568     -1.0802502473      0.5145936073
 C      3.5135595249     -1.0926949436     -0.9335621101
 C      2.5916875390     -0.3362188480     -1.5082798668
 C      1.2007004993     -0.8296264279      1.2441009266
 C      0.7368193087     -0.1988524978      0.1908058750
 C     -0.7379202224      0.0131123124     -0.0421203427
 C     -1.2069300642     -0.0910783882     -1.3259332811
 C     -2.5627392075      0.1993032337     -1.8400649716
 C     -3.3681269765      1.4062757894     -1.2870332519
 C     -3.5076585976      1.5978080179      0.0499410238
 C     -3.0149107340      0.6497942952      1.1089105585
 C     -1.5599346023      0.2502508165      1.1131655943
 C     -3.3872400938     -0.7748810804      0.9781907888
 C     -3.4351546788     -1.5103642223     -0.1414330951
 C     -3.0421213620     -1.1710876036     -1.4571756120
 H      0.9409020645      0.9982958332     -1.4578957146
 H      2.1451226704      2.7565496277     -0.2976628930
 H      3.8847402653      2.3228518662      1.3278392301
 H      4.4857241149      0.1886485146      2.2463501002
 H      2.8394129539     -1.6570865999      2.3593019326
 H      4.6226692844     -1.6149386311      0.8547776645
 H      4.0690248624     -1.7790419290     -1.5416922873
 H      2.4223771013     -0.4030256951     -2.5670847872
 H      0.4770812929     -1.3056649250      1.8721167198
 H     -0.4257016460     -0.2816575692     -2.0495838990
 H     -2.6600382903      0.3036941256     -2.9074447926
 H     -3.6306280789      2.1828937329     -1.9859735976
 H     -3.9164743305      2.5824794583      0.2331956192
 H     -3.2827919375      1.1477268580      2.0434943393
 H     -1.1077940366      0.1717951631      2.0772419069
 H     -3.6309060450     -1.2529173483      1.9068452409
 H     -3.7392182393     -2.5394539263     -0.1973666949
 H     -3.1141516933     -1.9213159364     -2.2175307161
38
# ORCA AIMD Position Step 12, t=6.00 fs, E_Pot=-772.10009117 Hartree, Unit is Angstrom
 C      1.6717846064      0.6283755939     -0.7427974015
 C      2.4215983801      1.7765348067      0.0514489197
 C      3.3946277450      1.4627462996      0.9208116727
 C      3.7680184627      0.0872882472      1.4651569995
 C      2.6405413917     -0.9689967543      1.5681884352
 C      3.7496722637     -1.0780049934      0.5134678064
 C      3.5150120525     -1.0953428361     -0.9350809456
 C      2.5958678066     -0.3395212884     -1.5069403912
 C      1.1977539105     -0.8300894116      1.2442483491
 C      0.7389117867     -0.2056151804      0.1878056315
 C     -0.7363429697      0.0101281872     -0.0430341173
 C     -1.2055208389     -0.0944054542     -1.3247530589
 C     -2.5594580343      0.1964626261     -1.8392253571
 C     -3.3705547943      1.4036639423     -1.2865753100
 C     -3.5056878274      1.5953541720      0.0475263713
 C     -3.0123702207      0.6488355706      1.1099753719
 C     -1.5561517384      0.2472314970      1.1126171293
 C     -3.3880152073     -0.7741377010      0.9783023162
 C     -3.4349142718     -1.5084037528     -0.1436284276
 C     -3.0396089227     -1.1731086805     -1.4568736773
 H      0.9511894295      0.9870619996     -1.4480327293
 H      2.1397876346      2.7631989572     -0.2922354301
 H      3.8870569448      2.3168571409      1.3256379860
 H      4.4842582219      0.1844222819      2.2437834199
 H      2.8364816348     -1.6603661113      2.3483049312
 H      4.6278584856     -1.6121921419      0.8571666565
 H      4.0690603116     -1.7884965344     -1.5421497810
 H      2.4214262176     -0.4084126825     -2.5719807637
 H      0.4756564937     -1.3007108866      1.8697910521
 H     -0.4158576738     -0.2725643305     -2.0545481084
 H     -2.6589378083      0.3014492170     -2.9085912610
 H     -3.6233595873      2.1755884616     -1.9793060949
 H     -3.9062946840      2.5857482730      0.2304101404
 H     -3.2744287491      1.1395358131      2.0230219498
 H     -1.1123190068      0.1675124331      2.0645402272
 H     -3.6292675712     -1.2426434586      1.8862252462
 H     -3.7411869531     -2.5229305927     -0.1997787297
 H     -3.1192962840     -1.9180215320     -2.2110251583
38
# ORCA AIMD Position Step 13, t=6.50 fs, E_Pot=-772.09344863 Hartree, Unit is Angstrom
 C      1.6753258439      0.6259963320     -0.7411804230
 C      2.4214943167      1.7777822974      0.0582529482
 C      3.3985524713      1.4615794911      0.9208195421
 C      3.7713024913      0.0850980697      1.4663511297
 C      2.6391342827     -0.9683084243      1.5662230581
 C      3.7476290933     -1.0758023404      0.5124584084
 C      3.5164774743     -1.0979401086     -0.9364773036
 C      2.5999287802     -0.3426522787     -1.5055281761
 C      1.1951160230     -0.8306115954      1.2444627006
 C      0.7409232471     -0.2120819871      0.1845222851