38
# ORCA AIMD Force Step 0, t=0.00 fs, E_Pot=-772.15010867 Hartree, Unit is Hartree/Angstrom
 C      0.0000000000      0.0000000000      0.0000000000
 C      0.0000000000      0.0000000000      0.0000000000
 C      0.0000000000      0.0000000000      0.0000000000
 C      0.0000000000      0.0000000000      0.0000000000
 C      0.0000000000      0.0000000000      0.0000000000
 C      0.0000000000      0.0000000000      0.0000000000
 C      0.0000000000      0.0000000000      0.0000000000
 C      0.0000000000      0.0000000000      0.0000000000
 C      0.0000000000      0.0000000000      0.0000000000
 C      0.0000000000      0.0000000000      0.0000000000
 C      0.0000000000      0.0000000000      0.0000000000
 C      0.0000000000      0.0000000000      0.0000000000
 C      0.0000000000      0.0000000000      0.0000000000
 C      0.0000000000      0.0000000000      0.0000000000
 C      0.0000000000      0.0000000000      0.0000000000
 C      0.0000000000      0.0000000000      0.0000000000
 C      0.0000000000      0.0000000000      0.0000000000
 C      0.0000000000      0.0000000000      0.0000000000
 C      0.0000000000      0.0000000000      0.0000000000
 C      0.0000000000      0.0000000000      0.0000000000
 H      0.0000000000      0.0000000000      0.0000000000
 H      0.0000000000      0.0000000000      0.0000000000
 H      0.0000000000      0.0000000000      0.0000000000
 H      0.0000000000      0.0000000000      0.0000000000
 H      0.0000000000      0.0000000000      0.0000000000
 H      0.0000000000      0.0000000000      0.0000000000
 H      0.0000000000      0.0000000000      0.0000000000
 H      0.0000000000      0.0000000000      0.0000000000
 H      0.0000000000      0.0000000000      0.0000000000
 H      0.0000000000      0.0000000000      0.0000000000
 H      0.0000000000      0.0000000000      0.0000000000
 H      0.0000000000      0.0000000000      0.0000000000
 H      0.0000000000      0.0000000000      0.0000000000
 H      0.0000000000      0.0000000000      0.0000000000
 H      0.0000000000      0.0000000000      0.0000000000
 H      0.0000000000      0.0000000000      0.0000000000
 H      0.0000000000      0.0000000000      0.0000000000
 H      0.0000000000      0.0000000000      0.0000000000
38
# ORCA AIMD Force Step 1, t=0.50 fs, E_Pot=-772.14703514 Hartree, Unit is Hartree/Angstrom
 C     -0.0131750881      0.0045491247     -0.0091717766
 C      0.0141309706     -0.0123319459      0.0117390464
 C     -0.0133241034      0.0147517058     -0.0115788298
 C     -0.0003263336      0.0044482163      0.0033701887
 C      0.0142311696     -0.0076419600      0.0089008840
 C      0.0013390843      0.0026204166      0.0103535576
 C     -0.0169049508      0.0137994927     -0.0137213612
 C      0.0165793413     -0.0128720774      0.0122098882
 C     -0.0180872773      0.0066773758     -0.0121900352
 C      0.0109035125     -0.0075519553      0.0170815845
 C     -0.0179826077      0.0016188382      0.0051945188
 C      0.0031351823      0.0020707829      0.0142199027
 C     -0.0045671464     -0.0022200936     -0.0036359751
 C     -0.0040007585      0.0115804377      0.0241268946
 C      0.0028524644      0.0021435720     -0.0400263162
 C     -0.0037362383      0.0107425967      0.0242521186
 C      0.0196323260     -0.0044035798      0.0039134477
 C     -0.0027497517     -0.0158416461      0.0274895826
 C      0.0051135136     -0.0145671894     -0.0210305413
 C     -0.0012027286     -0.0101069924      0.0105844550
 H      0.0213476582     -0.0105649430      0.0202244584
 H      0.0045906478     -0.0145852971      0.0062509908
 H     -0.0130235311     -0.0231479223     -0.0098875760
 H     -0.0215887925     -0.0043208318     -0.0217698541
 H     -0.0061135581      0.0157929360     -0.0223000292
 H     -0.0125916703      0.0052036457     -0.0048544672
 H     -0.0095772479      0.0110513007      0.0111866225
 H      0.0022931777      0.0004548227      0.0153773777
 H      0.0168299467      0.0113866523     -0.0149921429
 H     -0.0088636191      0.0044773956      0.0054228740
 H      0.0020933458     -0.0017113055      0.0173375561
 H      0.0090915124     -0.0217642340      0.0203061116
 H      0.0076490490     -0.0162718689     -0.0011551861
 H      0.0097537805     -0.0178883876     -0.0366828511
 H     -0.0167254570      0.0020950487     -0.0335298487
 H      0.0109846442      0.0195692693     -0.0371613534
 H      0.0108651554      0.0323144540      0.0028942882
 H      0.0006646168      0.0202088841      0.0212186702
38
# ORCA AIMD Force Step 2, t=1.00 fs, E_Pot=-772.14184315 Hartree, Unit is Hartree/Angstrom
 C     -0.0195420606      0.0058496052     -0.0132894772
 C      0.0110207554     -0.0279422965      0.0061756614
 C     -0.0117250111      0.0190470970     -0.0071129367
 C     -0.0038269178      0.0172983752      0.0021823497
 C      0.0176285869     -0.0129847607      0.0141001900
 C      0.0005334535      0.0063031723      0.0110159862
 C     -0.0184547912      0.0166018224     -0.0111831778
 C      0.0141001936     -0.0084701017      0.0201805473
 C     -0.0163586583      0.0012212759     -0.0053699442
 C      0.0084704034      0.0009275478      0.0108633302
 C     -0.0202695050      0.0014940447      0.0156669505
 C     -0.0017971925      0.0064863079      0.0160042116
 C     -0.0132083119      0.0019371810     -0.0024377552
 C     -0.0007019936      0.0130610391      0.0260658325
 C      0.0052562766      0.0018468092     -0.0543495023
 C     -0.0088038383      0.0242355684      0.0376732815
 C      0.0284216684     -0.0050290955      0.0101883624
 C     -0.0076532312     -0.0209774918      0.0563942047
 C      0.0031490586     -0.0321293149     -0.0412573532
 C     -0.0022237507     -0.0123158551      0.0112000866
 H      0.0300715829     -0.0113437358      0.0265763203
 H      0.0050093422     -0.0065669019      0.0060954132
 H     -0.0138746742     -0.0277178895     -0.0101420489
 H     -0.0249755861     -0.0074574986     -0.0262172797
 H     -0.0076946415      0.0179736614     -0.0240133454
 H     -0.0076859999     -0.0042125303     -0.0040402217
 H     -0.0066139121      0.0084175459      0.0095860904
 H      0.0015299142     -0.0002172402      0.0069173938
 H      0.0206411740      0.0120894668     -0.0161319136
 H     -0.0036703070     -0.0002012793     -0.0027268297
 H      0.0055752031     -0.0024440349      0.0133034388
 H      0.0109020781     -0.0281383351      0.0259598024
 H      0.0055247661     -0.0148899828      0.0046094712
 H      0.0138351063     -0.0279286614     -0.0501762795
 H     -0.0218095329      0.0027297543     -0.0443342559
 H      0.0144612582      0.0267724414     -0.0520719801
 H      0.0128560749      0.0416397082      0.0078737252
 H      0.0014309700      0.0248063153      0.0262172408
38
# ORCA AIMD Force Step 3, t=1.50 fs, E_Pot=-772.13563175 Hartree, Unit is Hartree/Angstrom
 C     -0.0242957962      0.0057057203     -0.0155541343
 C      0.0082119617     -0.0439287755      0.0009446596
 C     -0.0110265001      0.0214966723     -0.0033636906
 C     -0.0090753720      0.0299724550     -0.0005833342
 C      0.0204737655     -0.0169522650      0.0173522933
 C     -0.0008333198      0.0098518024      0.0112096056
 C     -0.0201216947      0.0197468408     -0.0075900513
 C      0.0113878765     -0.0037152870      0.0286235355
 C     -0.0130038023     -0.0034718960      0.0006868213
 C      0.0057360088      0.0096275914      0.0042215812
 C     -0.0221593745      0.0012621065      0.0259748640
 C     -0.0069785836      0.0107197195      0.0176433990
 C     -0.0217130073      0.0058444701     -0.0001810268
 C      0.0036158731      0.0125855956      0.0288191622
 C      0.0077696565      0.0008931828     -0.0673256955
 C     -0.0125622699      0.0359772654      0.0464989366
 C      0.0351238676     -0.0054656827      0.0132756917
 C     -0.0113642568     -0.0232974347      0.0805609810
 C      0.0017270418     -0.0470081084     -0.0614229660
 C     -0.0032257810     -0.0126898885      0.0132679326
 H      0.0370158620     -0.0107915122      0.0309239733
 H      0.0051173838      0.0020840285      0.0055731299
 H     -0.0136074000     -0.0303904990     -0.0094855591
 H     -0.0265616684     -0.0104383171     -0.0288237256
 H     -0.0088501709      0.0188574319     -0.0238939736
 H     -0.0022794761     -0.0136935702     -0.0030090247
 H     -0.0030891030      0.0050996123      0.0073147241
 H      0.0005979284     -0.0009354329     -0.0023385022
 H      0.0230693264      0.0118018876     -0.0160261432
 H      0.0017676864     -0.0046572989     -0.0108930284
 H      0.0089080473     -0.0030505487      0.0083093727
 H      0.0117216926     -0.0325485364      0.0297511265
 H      0.0031542024     -0.0127967095      0.0102976694
 H      0.0167076232     -0.0361747850     -0.0591995624
 H     -0.0251891475      0.0031844381     -0.0515911374
 H      0.0168885055      0.0315253653     -0.0623291876
 H      0.0141618789      0.0479448060      0.0130797445
 H      0.0023015053      0.0276023370      0.0292979179
38
# ORCA AIMD Force Step 4, t=2.00 fs, E_Pot=-772.12942825 Hartree, Unit is Hartree/Angstrom
 C     -0.0273152698      0.0042296209     -0.0159318014
 C      0.0056327023     -0.0595610477     -0.0040908900
 C     -0.0112740789      0.0220454985     -0.0003655517
 C     -0.0160478265      0.0422575695     -0.0049667446
 C      0.0227172854     -0.0194586183      0.0186439250
 C     -0.0021472364      0.0127638347      0.0111690786
 C     -0.0216831137      0.0230039107     -0.0031479022
 C      0.0083634282      0.0013295094      0.0367433582
 C     -0.0079959851     -0.0073084536      0.0058310904
 C      0.0027537969      0.0184449120     -0.0026885164
 C     -0.0236258564      0.0009189100      0.0359380632
 C     -0.0117136020      0.0144937067      0.0185275095
 C     -0.0299733547      0.0094472773      0.0028508679
 C      0.0088739446      0.0101191849      0.0323707529
 C      0.0102681823     -0.0005099522     -0.0787013746
 C     -0.0150870905      0.0458817011      0.0510462550
 C      0.0396359658     -0.0057133660      0.0132122737
 C     -0.0138804135     -0.0231264394      0.0999389452
 C      0.0009373096     -0.0587848510     -0.0809413874
 C     -0.0041675687     -0.0111423056      0.0167898948
 H      0.0420163315     -0.0089890613      0.0331989419
 H      0.0050274927      0.0106626376      0.0048615327
 H     -0.0122206042     -0.0310869035     -0.0079250036
 H     -0.0263121441     -0.0131745452     -0.0295203294
 H     -0.0095346023      0.0183796646     -0.0219386918
 H      0.0030001177     -0.0226875100     -0.0019757541
 H      0.0007758280      0.0013208764      0.0045805259
 H     -0.0004188038     -0.0016515269     -0.0116176240
 H      0.0240246121      0.0105143285     -0.0146356861
 H      0.0067720733     -0.0085804043     -0.0183572531
 H      0.0120259252     -0.0035285559      0.0026704855
 H      0.0115792952     -0.0348849891      0.0316016118
 H      0.0006896565     -0.0102397836      0.0157440827
 H      0.0184605674     -0.0425797315     -0.0640903527
 H     -0.0268517813      0.0034428641     -0.0552844788
 H      0.0182953620      0.0340022135     -0.0681847544
 H      0.0147027031      0.0510327047      0.0183095427
 H      0.0032142365      0.0284978991      0.0303633908
38
# ORCA AIMD Force Step 5, t=2.50 fs, E_Pot=-772.12402050 Hartree, Unit is Hartree/Angstrom
 C     -0.0285046389      0.0015762108     -0.0144481732
 C      0.0031502647     -0.0739965801     -0.0091035263
 C     -0.0124580067      0.0206985837      0.0018796208
 C     -0.0246541226      0.0539196610     -0.0109565697
 C      0.0243091768     -0.0204675917      0.0180295232
 C     -0.0027152846      0.0145553893      0.0111761003
 C     -0.0228665740      0.0260699032      0.0018742755
 C      0.0049327221      0.0065768758      0.0435997869
 C     -0.0013733251     -0.0102261372      0.0099700513
 C     -0.0003882008      0.0272141176     -0.0096583350
 C     -0.0246454260      0.0004453207      0.0453566898
 C     -0.0152857019      0.0175948185      0.0179929997
 C     -0.0379021072      0.0126965216      0.0062901165
 C      0.0149691106      0.0056853639      0.0366624113
 C      0.0126266643     -0.0020976332     -0.0882557681
 C     -0.0164750550      0.0538614673      0.0516190418
 C      0.0418493133     -0.0057387683      0.0100760218
 C     -0.0152036947     -0.0208493715      0.1143797793
 C      0.0008441780     -0.0670740566     -0.0991557156
 C     -0.0049940817     -0.0076723783      0.0217233132
 H      0.0449509447     -0.0060321565      0.0333711043
 H      0.0048970997      0.0183795619      0.0041844800
 H     -0.0097546778     -0.0297988711     -0.0055037491
 H     -0.0242453602     -0.0155792419     -0.0282928418
 H     -0.0097229161      0.0165293643     -0.0182211852
 H      0.0074366466     -0.0306367238     -0.0011962635
 H      0.0047005267     -0.0026224482      0.0016567459
 H     -0.0014089689     -0.0023071925     -0.0200130749
 H      0.0234884368      0.0082686171     -0.0119859338
 H      0.0106220604     -0.0117130897     -0.0243910393
 H      0.0148812176     -0.0038851987     -0.0032177960
 H      0.0105276471     -0.0350947678      0.0314835614
 H     -0.0017097361     -0.0075084903      0.0207954199
 H      0.0191819449     -0.0471251908     -0.0651660462
 H     -0.0267815770      0.0034825460     -0.0553935682
 H      0.0187122637      0.0343681305     -0.0698846017
 H      0.0144240135      0.0508230990      0.0233655318
 H      0.0041026684      0.0274671273      0.0293891084
38
# ORCA AIMD Force Step 6, t=3.00 fs, E_Pot=-772.11984638 Hartree, Unit is Hartree/Angstrom
 C     -0.0278396851     -0.0021323806     -0.0110919002
 C      0.0006429850     -0.0866265843     -0.0144854836
 C     -0.0145780096      0.0174866604      0.0035375907
 C     -0.0348820200      0.0648992570     -0.0185672208
 C      0.0253336710     -0.0200104611      0.0156249484
 C     -0.0018214606      0.0147754624      0.0115740513
 C     -0.0233621864      0.0286065126      0.0072524903
 C      0.0008228384      0.0120536016      0.0482655556
 C      0.0068858372     -0.0123083399      0.0130123175
 C     -0.0037132067      0.0360859502     -0.0166112097
 C     -0.0251984555     -0.0001223912      0.0543902002
 C     -0.0169989219      0.0199207657      0.0155465166
 C     -0.0456841634      0.0156789040      0.0096852810
 C      0.0219399427     -0.0006684799      0.0417030097
 C      0.0147120380     -0.0035821546     -0.0959115742
 C     -0.0167295668      0.0599501560      0.0483587351
 C      0.0417031709     -0.0055950804      0.0037908924
 C     -0.0152516131     -0.0166145677      0.1237236544
 C      0.0015342692     -0.0716916854     -0.1158047541
 C     -0.0057320265     -0.0023078309      0.0280413752
 H      0.0457913912     -0.0020084320      0.0314731477
 H      0.0049431687      0.0244779346      0.0037834443
 H     -0.0062925554     -0.0266015641     -0.0022796189
 H     -0.0204315645     -0.0176023883     -0.0251853652
 H     -0.0094163217      0.0133737700     -0.0128550997
 H      0.0103200261     -0.0371097914     -0.0009446055
 H      0.0084354760     -0.0063951390     -0.0011844735
 H     -0.0022097493     -0.0028378536     -0.0266350361
 H      0.0214508654      0.0050922595     -0.0081129557
 H      0.0127156615     -0.0140036096     -0.0284458285
 H      0.0174713974     -0.0041496676     -0.0089138200
 H      0.0086053780     -0.0331774237      0.0293988061
 H     -0.0039305247     -0.0049730029      0.0253404265
 H      0.0189104501     -0.0497850581     -0.0626024427
 H     -0.0249889805      0.0033081819     -0.0519517809
 H      0.0181246101      0.0326306917     -0.0674028670
 H      0.0133010519      0.0472275491      0.0281019702
 H      0.0049378918      0.0245332721      0.0264084492
38
# ORCA AIMD Force Step 7, t=3.50 fs, E_Pot=-772.11693486 Hartree, Unit is Hartree/Angstrom
 C     -0.0251104207     -0.0067393631     -0.0058889764
 C     -0.0021447234     -0.0962231412     -0.0200798725
 C     -0.0174876668      0.0126534126      0.0043580076
 C     -0.0462203134      0.0746149780     -0.0275107242
 C      0.0256437197     -0.0181994677      0.0117206773
 C      0.0009822498      0.0132896670      0.0124869680
 C     -0.0229361772      0.0302527558      0.0123985806
 C     -0.0037316399      0.0174069542      0.0497716701
 C      0.0162257771     -0.0132882558      0.0148611591
 C     -0.0069914208      0.0443057197     -0.0230191933
 C     -0.0252718632     -0.0008342282      0.0620597451
 C     -0.0163755766      0.0213627782      0.0108245660
 C     -0.0526511021      0.0181839115      0.0126408005
 C      0.0293486766     -0.0088706167      0.0471911984
 C      0.0163983201     -0.0046512416     -0.1012520944
 C     -0.0158802918      0.0637030193      0.0412752975
 C      0.0391105342     -0.0051546188     -0.0054845097
 C     -0.0140602579     -0.0108147474      0.1271286691
 C      0.0029847991     -0.0720465401     -0.1295092144
 C     -0.0061907539      0.0048606671      0.0353555407
 H      0.0442488776      0.0029788726      0.0273893437
 H      0.0053142857      0.0281435009      0.0039276519
 H     -0.0019323388     -0.0215903255      0.0016242940
 H     -0.0150032814     -0.0191251383     -0.0202913143
 H     -0.0086198164      0.0089988469     -0.0061331486
 H      0.0111306237     -0.0416830893     -0.0013801576
 H      0.0115416265     -0.0095979951     -0.0035208559
 H     -0.0027316212     -0.0031915639     -0.0304838937
 H      0.0181125702      0.0012051965     -0.0032213071
 H      0.0123900922     -0.0151745667     -0.0298353760
 H      0.0197223264     -0.0043355431     -0.0138983462
 H      0.0059444797     -0.0290997229      0.0253717356
 H     -0.0057617332     -0.0028282424      0.0292241012
 H      0.0176322477     -0.0503517820     -0.0563606037
 H     -0.0213974996      0.0028523106     -0.0447664963
 H      0.0164622342      0.0288009116     -0.0607053144
 H      0.0112399047      0.0402562004      0.0322758935
 H      0.0055920493      0.0197414393      0.0214712720
38
# ORCA AIMD Force Step 8, t=4.00 fs, E_Pot=-772.11487619 Hartree, Unit is Hartree/Angstrom
 C     -0.0203354327     -0.0120959222      0.0011260696
 C     -0.0053042766     -0.1026245410     -0.0261980707
 C     -0.0210524597      0.0064595962      0.0046116361
 C     -0.0584491069      0.0830756938     -0.0375933956
 C      0.0254042929     -0.0152931363      0.0066968359
 C      0.0059359400      0.0100260961      0.0140787697
 C     -0.0212982899      0.0306536524      0.0170870597
 C     -0.0090021256      0.0227232670      0.0476881772
 C      0.0264741684     -0.0133914126      0.0155993556
 C     -0.0102322212      0.0520551208     -0.0288727992
 C     -0.0248787038     -0.0016353998      0.0685870959
 C     -0.0133174432      0.0220966841      0.0039668819
 C     -0.0590524823      0.0203431237      0.0146995454
 C      0.0371809606     -0.0187263709      0.0530771075
 C      0.0176067505     -0.0050634273     -0.1042923833
 C     -0.0138402549      0.0650403113      0.0301883862
 C      0.0340792250     -0.0044703820     -0.0178192451
 C     -0.0114471061     -0.0033430398      0.1241336880
 C      0.0052530953     -0.0681222388     -0.1401526939
 C     -0.0064067262      0.0135756610      0.0434541694
 H      0.0403762544      0.0088156994      0.0212193691
 H      0.0061763257      0.0290179270      0.0047590500
 H      0.0031129837     -0.0150781962      0.0060454350
 H     -0.0082139186     -0.0201370837     -0.0138532287
 H     -0.0074065727      0.0036862203      0.0015811438
 H      0.0096149162     -0.0443000378     -0.0026076246
 H      0.0138007488     -0.0118940790     -0.0050964129
 H     -0.0028403795     -0.0033266884     -0.0311310714
 H      0.0136474678     -0.0032454118      0.0024939285
 H      0.0096485794     -0.0154796149     -0.0286310679
 H      0.0216659278     -0.0044864918     -0.0177402908
 H      0.0026322809     -0.0229978415      0.0195197199
 H     -0.0071401806     -0.0014125217      0.0323806872
 H      0.0152855245     -0.0486391103     -0.0462853384
 H     -0.0160445165      0.0021173194     -0.0339050067
 H      0.0136131609      0.0226748097     -0.0493842863
 H      0.0082386737      0.0299236158      0.0357661051
 H      0.0060490697      0.0133060400      0.0148026222
38
# ORCA AIMD Force Step 9, t=4.50 fs, E_Pot=-772.11291610 Hartree, Unit is Hartree/Angstrom
 C     -0.0136252160     -0.0180473128      0.0097425155
 C     -0.0088860840     -0.1056485793     -0.0325934098
 C     -0.0248031439     -0.0005909232      0.0044668331
 C     -0.0709063946      0.0901464192     -0.0482457363
 C      0.0245730543     -0.0117119228      0.0012027318
 C      0.0127883559      0.0052764992      0.0162275444
 C     -0.0183497594      0.0295843998      0.0208228685
 C     -0.0148086985      0.0278209164      0.0419732768
 C      0.0369643306     -0.0126342360      0.0153495387
 C     -0.0132250943      0.0588464116     -0.0338315286
 C     -0.0240144773     -0.0025304437      0.0735902319
 C     -0.0081268861      0.0223306965     -0.0045866402
 C     -0.0646900233      0.0222273161      0.0156033155
 C      0.0450334512     -0.0298339320      0.0587737098
 C      0.0183639618     -0.0047351835     -0.1049647589
 C     -0.0104936329      0.0633154145      0.0150601741
 C      0.0266773851     -0.0034608421     -0.0328646975
 C     -0.0073512154      0.0057071383      0.1141064272
 C      0.0082827152     -0.0597767215     -0.1468874507
 C     -0.0062905951      0.0233137303      0.0518147810
 H      0.0341761624      0.0153362301      0.0130607557
 H      0.0075133833      0.0271449647      0.0062770001
 H      0.0085132906     -0.0075853912      0.0106807262
 H     -0.0005038794     -0.0206261749     -0.0063175801
 H     -0.0058843062     -0.0021679431      0.0096803991
 H      0.0059940602     -0.0451017060     -0.0045171974
 H      0.0149563302     -0.0130129470     -0.0056519221
 H     -0.0025157533     -0.0032387304     -0.0284570473
 H      0.0084876195     -0.0079044568      0.0086239564
 H      0.0047671725     -0.0150624349     -0.0250906745
 H      0.0232893718     -0.0046249933     -0.0201065100
 H     -0.0011009782     -0.0152207942      0.0121898620
 H     -0.0080450269     -0.0006855762      0.0347610286
 H      0.0118011764     -0.0443536522     -0.0321735454
 H     -0.0090501175      0.0010721174     -0.0195729338
 H      0.0094983433      0.0141993760     -0.0333237110
 H      0.0042937824      0.0164987576      0.0384066312
 H      0.0062384799      0.0055792722      0.0067514381
38
# ORCA AIMD Force Step 10, t=5.00 fs, E_Pot=-772.11015962 Hartree, Unit is Hartree/Angstrom
 C     -0.0050026464     -0.0244036673      0.0199259733
 C     -0.0126520040     -0.1058297425     -0.0395292595
 C     -0.0287436232     -0.0079881701      0.0043300284
 C     -0.0833572554      0.0958437343     -0.0591744114
 C      0.0236282939     -0.0079078584     -0.0043252657
 C      0.0213405890     -0.0007806812      0.0189712779
 C     -0.0140587229      0.0269631234      0.0238385989
 C     -0.0212878511      0.0327478842      0.0330229905
 C      0.0475270798     -0.0115620306      0.0143709933
 C     -0.0161741566      0.0651842751     -0.0378023300
 C     -0.0227060674     -0.0034829720      0.0774187665
 C     -0.0013724293      0.0224489034     -0.0142602362
 C     -0.0699299618      0.0238866310      0.0150219625
 C      0.0531277847     -0.0418712670      0.0642489324
 C      0.0185669868     -0.0034139454     -0.1031817277
 C     -0.0057853455      0.0586416056     -0.0047428346
 C      0.0171400957     -0.0022109124     -0.0503279524
 C     -0.0015198647      0.0165471159      0.0966272406
 C      0.0120461475     -0.0475957325     -0.1501130105
 C     -0.0060014972      0.0335610867      0.0600176391
 H      0.0258165756      0.0224505109      0.0030857706
 H      0.0093954711      0.0226958292      0.0084170192
 H      0.0139210300      0.0003336294      0.0152931601
 H      0.0076201834     -0.0206661372      0.0017924053
 H     -0.0042200358     -0.0079991339      0.0176378626
 H      0.0004165020     -0.0443091255     -0.0070567220
 H      0.0149988148     -0.0127589315     -0.0051469431
 H     -0.0017167448     -0.0028961382     -0.0228804784
 H      0.0030171301     -0.0125522374      0.0147902457
 H     -0.0016530773     -0.0144039744     -0.0198644085
 H      0.0246477929     -0.0047929628     -0.0207322189
 H     -0.0051819331     -0.0060699750      0.0036257430
 H     -0.0084863701     -0.0010841872      0.0363401181
 H      0.0070427359     -0.0372087234     -0.0136159382
 H     -0.0006259570     -0.0002263479     -0.0022028493
 H      0.0039737172      0.0030783981     -0.0119760962
 H     -0.0004495776      0.0003493541      0.0401910571
 H      0.0062468238     -0.0028588715     -0.0020767776
38
# ORCA AIMD Force Step 11, t=5.50 fs, E_Pot=-772.10591791 Hartree, Unit is Hartree/Angstrom
 C      0.0049818736     -0.0308309242      0.0310984662
 C     -0.0164971472     -0.1035568828     -0.0464913003
 C     -0.0322438690     -0.0148601056      0.0044174400
 C     -0.0947355548      0.1001145782     -0.0693640947
 C      0.0225854504     -0.0045887186     -0.0089692592
 C      0.0307878523     -0.0076138531      0.0218780309
 C     -0.0085818995      0.0228507095      0.0258581964
 C     -0.0280460098      0.0373364068      0.0216841186
 C      0.0571995260     -0.0103178794      0.0130058987
 C     -0.0188662531      0.0705744774     -0.0405351155
 C     -0.0209995552     -0.0044647931      0.0795959632
 C      0.0061860829      0.0226048405     -0.0241697183
 C     -0.0743766089      0.0252917969      0.0130136396
 C      0.0608609461     -0.0540079306      0.0686200970
 C      0.0183035700     -0.0011800580     -0.0987741898
 C      0.0002923428      0.0506932848     -0.0288919958
 C      0.0061081358     -0.0007108216     -0.0688404003
 C      0.0058407350      0.0288771366      0.0721775384
 C      0.0162385305     -0.0323874831     -0.1492781577
 C     -0.0054859566      0.0434030706      0.0670230084
 H      0.0157417350      0.0298012576     -0.0081981503
 H      0.0116088251      0.0162938822      0.0109595666
 H      0.0188457978      0.0078495493      0.0194523354
 H      0.0153802547     -0.0203250491      0.0096505555
 H     -0.0025971441     -0.0131552529      0.0246098775
 H     -0.0063440281     -0.0423147021     -0.0098874647
 H      0.0138999908     -0.0111402039     -0.0035693062
 H     -0.0005734119     -0.0023453166     -0.0151130152
 H     -0.0020824877     -0.0166924390      0.0203852187
 H     -0.0089153997     -0.0136256630     -0.0135709042
 H      0.0256874879     -0.0049848206     -0.0196233475
 H     -0.0092672636      0.0037302436     -0.0054979035
 H     -0.0084791011     -0.0024396408      0.0370858480
 H      0.0010509120     -0.0271329016      0.0091614214
 H      0.0086115428     -0.0017300120      0.0169808293
 H     -0.0028416570     -0.0103490741      0.0139305447
 H     -0.0057893511     -0.0175383097      0.0410533649
 H      0.0060680240     -0.0112617413     -0.0109316279
38
# ORCA AIMD Force Step 12, t=6.00 fs, E_Pot=-772.10009117 Hartree, Unit is Hartree/Angstrom
 C      0.0155309738     -0.0368951795      0.0424593114
 C     -0.0201197427     -0.0995815770     -0.0531476242
 C     -0.0348725231     -0.0203241167      0.0050871830
 C     -0.1041648557      0.1030316066     -0.0778983985
 C      0.0216948682     -0.0024366399     -0.0120015330
 C      0.0404206837     -0.0148032297      0.0246645485
 C     -0.0022377036      0.0175266818      0.0270050380
 C     -0.0348136462      0.0415094694      0.0089753012
 C      0.0652875024     -0.0092809045      0.0116773271
 C     -0.0212911455      0.0749853058     -0.0419051334
 C     -0.0189221172     -0.0054633267      0.0800372053
 C      0.0137471485      0.0229951381     -0.0335368870
 C     -0.0779775099      0.0264795043      0.0097126991
 C      0.0679193702     -0.0652691357      0.0709696617
 C      0.0176415529      0.0018829874     -0.0917111867
 C      0.0074852712      0.0398655016     -0.0565169241
 C     -0.0054263799      0.0009258749     -0.0864839448
 C      0.0143060997      0.0418955301      0.0425121446
 C      0.0204013074     -0.0157825094     -0.1444970545
 C     -0.0048339328      0.0518517351      0.0718092239
 H      0.0047591774      0.0369702852     -0.0199951517
 H      0.0139540482      0.0086582304      0.0136319870
 H      0.0227708902      0.0140866225      0.0227420868
 H      0.0219238033     -0.0197259784      0.0163373586
 H     -0.0012121932     -0.0169430454      0.0298653107
 H     -0.0136069408     -0.0394985324     -0.0127224168
 H      0.0118339597     -0.0083202118     -0.0011074782
 H      0.0007844268     -0.0016214901     -0.0060723654
 H     -0.0061631232     -0.0199148675      0.0248313176
 H     -0.0162525720     -0.0129417786     -0.0069227887
 H      0.0263810371     -0.0051943301     -0.0168958672
 H     -0.0130277463      0.0132108131     -0.0143103398
 H     -0.0081172744     -0.0046382677      0.0370092607
 H     -0.0059514611     -0.0144728688      0.0353208043
 H      0.0177554609     -0.0032953653      0.0361056754
 H     -0.0105463797     -0.0252547954      0.0426916946
 H     -0.0112937167     -0.0356423231      0.0410737019
 H      0.0058018135     -0.0187070577     -0.0188764085
38
# ORCA AIMD Force Step 13, t=6.50 fs, E_Pot=-772.09344863 Hartree, Unit is Hartree/Angstrom
 C      0.0254353800     -0.0420143886      0.0528489635
 C     -0.0232119505     -0.0946674017     -0.0591425205
 C     -0.0362064086     -0.0235613505      0.0066657532
 C     -0.1107654379      0.1046901435     -0.0838337056
 C      0.0211357191     -0.0020462621     -0.0128233822
 C      0.0495575796     -0.0219830673      0.0270218283
 C      0.0045587150      0.0114002903      0.0274676365
 C     -0.0412596864      0.0451691645     -0.0040398501
 C      0.0711544795     -0.0087810331      0.0107776021