38
Properties=species:S:1:pos:R:3:forces:R:3 #=T ORCA=T AIMD=T Position=T Step=T 0,=T t=0.0 fs,=T E_Pot=-772.15010867 Hartree,=T Unit=T is=T Angstrom=T energy=-772.15010867 pbc="F F F"
C        1.62796001       0.64820700      -0.75664000       0.00000000       0.00000000       0.00000000
C        2.41976101       1.72505801      -0.03630700       0.00000000       0.00000000       0.00000000
C        3.34132301       1.47618301       0.92204200       0.00000000       0.00000000       0.00000000
C        3.70547102       0.14438800       1.43419701       0.00000000       0.00000000       0.00000000
C        2.66581001      -0.98143800       1.59125201       0.00000000       0.00000000       0.00000000
C        3.77847202      -1.10135000       0.53155300       0.00000000       0.00000000       0.00000000
C        3.49225802      -1.05612800      -0.91310500       0.00000000       0.00000000       0.00000000
C        2.54537301      -0.29499700      -1.50902401       0.00000000       0.00000000       0.00000000
C        1.23984401      -0.82853000       1.24670501       0.00000000       0.00000000       0.00000000
C        0.71215600      -0.11256400       0.21326300       0.00000000       0.00000000       0.00000000
C       -0.76238000       0.04334400      -0.01106300       0.00000000       0.00000000       0.00000000
C       -1.22408801      -0.04979800      -1.33795401       0.00000000       0.00000000       0.00000000
C       -2.61567001       0.23506000      -1.84488901       0.00000000       0.00000000       0.00000000
C       -3.33070701       1.42622501      -1.27381601       0.00000000       0.00000000       0.00000000
C       -3.52254102       1.62215301       0.04165900       0.00000000       0.00000000       0.00000000
C       -3.04473201       0.67903200       1.10491100       0.00000000       0.00000000       0.00000000
C       -1.58927501       0.28010000       1.11081400       0.00000000       0.00000000       0.00000000
C       -3.38182502      -0.78262300       1.01286600       0.00000000       0.00000000       0.00000000
C       -3.43517902      -1.54990501      -0.16248400       0.00000000       0.00000000       0.00000000
C       -3.06998001      -1.14506701      -1.44550601       0.00000000       0.00000000       0.00000000
H        0.97595700       1.15351101      -1.49100701       0.00000000       0.00000000       0.00000000
H        2.23031901       2.77205801      -0.32704700       0.00000000       0.00000000       0.00000000
H        3.87371902       2.32998501       1.37451401       0.00000000       0.00000000       0.00000000
H        4.47267402       0.15700400       2.22414101       0.00000000       0.00000000       0.00000000
H        2.84211101      -1.61024001       2.47831001       0.00000000       0.00000000       0.00000000
H        4.58306902      -1.79848301       0.81188000       0.00000000       0.00000000       0.00000000
H        4.11073902      -1.71460701      -1.54523201       0.00000000       0.00000000       0.00000000
H        2.42573801      -0.35814100      -2.60440601       0.00000000       0.00000000       0.00000000
H        0.54220300      -1.36952601       1.90685901       0.00000000       0.00000000       0.00000000
H       -0.51203600      -0.42872600      -2.08725201       0.00000000       0.00000000       0.00000000
H       -2.58874001       0.30896000      -2.94747701       0.00000000       0.00000000       0.00000000
H       -3.69786002       2.17958301      -1.98828601       0.00000000       0.00000000       0.00000000
H       -4.04332702       2.53159601       0.38148200       0.00000000       0.00000000       0.00000000
H       -3.31801901       1.06193100       2.10423901       0.00000000       0.00000000       0.00000000
H       -1.11226100       0.22203000       2.10055301       0.00000000       0.00000000       0.00000000
H       -3.60419402      -1.28866001       1.96392201       0.00000000       0.00000000       0.00000000
H       -3.69286102      -2.61501101      -0.03896900       0.00000000       0.00000000       0.00000000
H       -3.03928201      -1.91061201      -2.23469501       0.00000000       0.00000000       0.00000000
38
Properties=species:S:1:pos:R:3:forces:R:3 #=T ORCA=T AIMD=T Position=T Step=T 1,=T t=0.5 fs,=T E_Pot=-772.14703514 Hartree,=T Unit=T is=T Angstrom=T energy=-772.14703514 pbc="F F F"
C        1.63212441       0.64661976      -0.75525332      -0.01317509       0.00454912      -0.00917178
C        2.41976610       1.73094878      -0.02905905       0.01413097      -0.01233195       0.01173905
C        3.34605110       1.47463112       0.92200323      -0.01332410       0.01475171      -0.01157883
C        3.71121633       0.13849293       1.43704671      -0.00032633       0.00444822       0.00337019
C        2.66314152      -0.97998393       1.58901390       0.01423117      -0.00764196       0.00890088
C        3.77610707      -1.09973858       0.52973840       0.00133908       0.00262042       0.01035356
C        3.49468946      -1.05995444      -0.91485620      -0.01690495       0.01379949      -0.01372136
C        2.54926965      -0.29868416      -1.50982809       0.01657934      -0.01287208       0.01220989
C        1.23648871      -0.82850113       1.24640048      -0.01808728       0.00667738      -0.01219004
C        0.71426839      -0.12067511       0.21134858       0.01090351      -0.00755196       0.01708158
C       -0.75961182       0.04065932      -0.01473382      -0.01798261       0.00161884       0.00519452
C       -1.22236364      -0.05378458      -1.33727891       0.00313518       0.00207078       0.01421990
C       -2.61020907       0.23167339      -1.84455529      -0.00456715      -0.00222009      -0.00363598
C       -3.33431446       1.42434113      -1.27592129      -0.00400076       0.01158044       0.02412689
C       -3.52149143       1.62002116       0.04438543       0.00285246       0.00214357      -0.04002632
C       -3.04178280       0.67536292       1.10419733      -0.00373624       0.01074260       0.02425212
C       -1.58757943       0.27760349       1.11091123       0.01963233      -0.00440358       0.00391345
C       -3.38202527      -0.78147633       1.00750265      -0.00274975      -0.01584165       0.02748958
C       -3.43526056      -1.54510190      -0.15854526       0.00511351      -0.01456719      -0.02103054
C       -3.06741737      -1.14720880      -1.44709894      -0.00120273      -0.01010699       0.01058445
H        0.96122330       1.14167187      -1.49686646       0.02134766      -0.01056494       0.02022446
H        2.22110866       2.76836633      -0.32617648       0.00459065      -0.01458530       0.00625099
H        3.87770875       2.33766018       1.37221107      -0.01302353      -0.02314792      -0.00988758
H        4.48073042       0.16373666       2.23393383      -0.02158879      -0.00432083      -0.02176985
H        2.84451606      -1.61912676       2.47339444      -0.00611356       0.01579294      -0.02230003
H        4.58663463      -1.77603941       0.81663904      -0.01259167       0.00520365      -0.00485447
H        4.10690240      -1.72075731      -1.54639165      -0.00957725       0.01105130       0.01118662
H        2.42548110      -0.36165153      -2.59857218       0.00229318       0.00045482       0.01537738
H        0.52999953      -1.36646262       1.90743024       0.01682995       0.01138665      -0.01499214
H       -0.50531885      -0.41370052      -2.07949902      -0.00886362       0.00447740       0.00542287
H       -2.59868585       0.30954295      -2.94482049       0.00209335      -0.00171131       0.01733756
H       -3.69486056       2.18920593      -1.99650105       0.00909151      -0.02176423       0.02030611
H       -4.03247641       2.53940622       0.36370727       0.00764905      -0.01627187      -0.00115519
H       -3.31989579       1.08147593       2.11598847       0.00975378      -0.01788839      -0.03668285
H       -1.10480324       0.21669266       2.11301289      -0.01672546       0.00209505      -0.03352985
H       -3.61150568      -1.29446253       1.97691502       0.01098464       0.01956927      -0.03716135
H       -3.70093593      -2.62176678      -0.05865974       0.01086516       0.03231445       0.00289429
H       -3.04688944      -1.91903430      -2.24115994       0.00066462       0.02020888       0.02121867
38
Properties=species:S:1:pos:R:3:forces:R:3 #=T ORCA=T AIMD=T Position=T Step=T 2,=T t=1.0 fs,=T E_Pot=-772.14184315 Hartree,=T Unit=T is=T Angstrom=T energy=-772.14184315 pbc="F F F"
C        1.63621945       0.64505638      -0.75391589      -0.01954206       0.00584961      -0.01328948
C        2.41984844       1.73677591      -0.02174229       0.01102076      -0.02794230       0.00617566
C        3.35070937       1.47315887       0.92190113      -0.01172501       0.01904710      -0.00711294
C        3.71696353       0.13261840       1.43991665      -0.00382692       0.01729838       0.00218235
C        2.66054912      -0.97857071       1.58682301       0.01762859      -0.01298476       0.01410019
C        3.77374793      -1.09811180       0.52797924       0.00053345       0.00630317       0.01101599
C        3.49703004      -1.06370790      -0.91668352      -0.01845479       0.01660182      -0.01118318
C        2.55325942      -0.30244404      -1.51056594       0.01410019      -0.00847010       0.02018055
C        1.23303239      -0.82843573       1.24602912      -0.01635866       0.00122128      -0.00536994
C        0.71644174      -0.12883269       0.20952631       0.00847040       0.00092755       0.01086333
C       -0.75694016       0.03798177      -0.01837859      -0.02026951       0.00149404       0.01566695
C       -1.22062104      -0.05776238      -1.33652565      -0.00179719       0.00648631       0.01600421
C       -2.60476960       0.22827248      -1.84424123      -0.01320831       0.00193718      -0.00243776
C       -3.33794608       1.42251936      -1.27789604      -0.00070199       0.01306104       0.02606583
C       -3.52042558       1.61789966       0.04689479       0.00525628       0.00184681      -0.05434950
C       -3.03885213       0.67175020       1.10361578      -0.00880384       0.02423557       0.03767328
C       -1.58577545       0.27508131       1.11102991       0.02842167      -0.00502910       0.01018836
C       -3.38224069      -0.78041553       1.00228613      -0.00765323      -0.02097749       0.05639420
C       -3.43531419      -1.54037534      -0.15471897       0.00314906      -0.03212931      -0.04125735
C       -3.06485966      -1.14940722      -1.44863503      -0.00222375      -0.01231586       0.01120009
H        0.94787071       1.12913699      -1.50141230       0.03007158      -0.01134374       0.02657632
H        2.21219143       2.76372224      -0.32489824       0.00500934      -0.00656690       0.00609541
H        3.88085271       2.34383246       1.36926260      -0.01387467      -0.02771789      -0.01014205
H        4.48738574       0.17019218       2.24231489      -0.02497559      -0.00745750      -0.02621728
H        2.84652443      -1.62699048       2.46702316      -0.00769464       0.01797366      -0.02401335
H        4.58938234      -1.75324250       0.82108490      -0.00768600      -0.00421253      -0.00404022
H        4.10243949      -1.72619170      -1.54682337      -0.00661391       0.00841755       0.00958609
H        2.42537340      -0.36513467      -2.59173297       0.00152991      -0.00021724       0.00691739
H        0.51888451      -1.36265558       1.90702528       0.02064117       0.01208947      -0.01613191
H       -0.49917475      -0.39837378      -2.07138784      -0.00367031      -0.00020128      -0.00272683
H       -2.60850170       0.31001481      -2.94103295       0.00557520      -0.00244403       0.01330344
H       -3.69126698       2.19741734      -2.00339866       0.01090208      -0.02813834       0.02595980
H       -4.02112063       2.54616152       0.34584592       0.00552477      -0.01488998       0.00460947
H       -3.32113843       1.09986815       2.12535602       0.01383511      -0.02792866      -0.05017628
H       -1.09843017       0.21148836       2.12329669      -0.02180953       0.00272975      -0.04433426
H       -3.61810650      -1.29899408       1.98749574       0.01446126       0.02677244      -0.05207198
H       -3.70830828      -2.62642198      -0.07817456       0.01285607       0.04163971       0.00787373
H       -3.05445843      -1.92614562      -2.24624687       0.00143097       0.02480632       0.02621724
38
Properties=species:S:1:pos:R:3:forces:R:3 #=T ORCA=T AIMD=T Position=T Step=T 3,=T t=1.5 fs,=T E_Pot=-772.13563175 Hartree,=T Unit=T is=T Angstrom=T energy=-772.13563175 pbc="F F F"
C        1.64021652       0.64352158      -0.75264824      -0.02429580       0.00570572      -0.01555413
C        2.41999125       1.74246289      -0.01437577       0.00821196      -0.04392878       0.00094466
C        3.35531366       1.47178762       0.92175990      -0.01102650       0.02149667      -0.00336369
C        3.72270235       0.12682568       1.44280480      -0.00907537       0.02997245      -0.00058333
C        2.65804750      -0.97722544       1.58470448       0.02047377      -0.01695227       0.01735229
C        3.77138656      -1.09644698       0.52627651      -0.00083332       0.00985180       0.01120961
C        3.49927477      -1.06737872      -0.91857602      -0.02012169       0.01974684      -0.00759005
C        2.55733503      -0.30625847      -1.51119499       0.01138788      -0.00371529       0.02862354
C        1.22947903      -0.82836351       1.24562757      -0.01300380      -0.00347190       0.00068682
C        0.71866616      -0.13700300       0.20775950       0.00573601       0.00962759       0.00422158
C       -0.75437356       0.03530655      -0.02194560      -0.02215937       0.00126211       0.02597486
C       -1.21888446      -0.06171339      -1.33568320      -0.00697858       0.01071972       0.01764340
C       -2.59939053       0.22487474      -1.84393982      -0.02171301       0.00584447      -0.00018103
C       -3.34158947       1.42076507      -1.27973249       0.00361587       0.01258560       0.02881916
C       -3.51932864       1.61578363       0.04911230       0.00776966       0.00089318      -0.06732570
C       -3.03596323       0.66826220       1.10323906      -0.01256227       0.03597727       0.04649894
C       -1.58381204       0.27252612       1.11120459       0.03512387      -0.00546568       0.01327569
C       -3.38249844      -0.77946717       0.99736674      -0.01136426      -0.02329743       0.08056098
C       -3.43535072      -1.53581425      -0.15111003       0.00172704      -0.04700811      -0.06142297
C       -3.06230853      -1.15167782      -1.45011320      -0.00322578      -0.01268989       0.01326793
H        0.93644927       1.11583527      -1.50423560       0.03701586      -0.01079151       0.03092397
H        2.20358129       2.75863993      -0.32321985       0.00511738       0.00208403       0.00557313
H        3.88309907       2.34821134       1.36564657      -0.01360740      -0.03039050      -0.00948556
H        4.49242749       0.17617566       2.24900520      -0.02656167      -0.01043832      -0.02882373
H        2.84803559      -1.63369971       2.45907259      -0.00885017       0.01885743      -0.02389397
H        4.59163501      -1.73067044       0.82527710      -0.00227948      -0.01369357      -0.00300902
H        4.09753570      -1.73108923      -1.54663114      -0.00308910       0.00509961       0.00731472
H        2.42536520      -0.36863958      -2.58442791       0.00059793      -0.00093543      -0.00233850
H        0.50909078      -1.35805214       1.90556783       0.02306933       0.01180189      -0.01602614
H       -0.49325649      -0.38302671      -2.06343670       0.00176769      -0.00465730      -0.01089303
H       -2.61797554       0.31032837      -2.93636992       0.00890805      -0.00305055       0.00830937
H       -3.68695488       2.20381241      -2.00861907       0.01172169      -0.03254854       0.02975113
H       -4.00937991       2.55196092       0.32824606       0.00315420      -0.01279671       0.01029767
H       -3.32148191       1.11647990       2.13147314       0.01670762      -0.03617479      -0.05919956
H       -1.09346489       0.20645066       2.13071289      -0.02518915       0.00318444      -0.05159114
H       -3.62377904      -1.30179029       1.99470511       0.01688851       0.03152537      -0.06232919
H       -3.71485866      -2.62837296      -0.09721869       0.01416188       0.04794481       0.01307974
H       -3.06195067      -1.93165540      -2.24963587       0.00230151       0.02760234       0.02929792
38
Properties=species:S:1:pos:R:3:forces:R:3 #=T ORCA=T AIMD=T Position=T Step=T 4,=T t=2.0 fs,=T E_Pot=-772.12942825 Hartree,=T Unit=T is=T Angstrom=T energy=-772.12942825 pbc="F F F"
C        1.64409736       0.64201157      -0.75146044      -0.02731527       0.00422962      -0.01593180
C        2.42017963       1.74793324      -0.00697308       0.00563270      -0.05956105      -0.00409089
C        3.35987694       1.47052831       0.92159965      -0.01127408       0.02204550      -0.00036555
C        3.72841561       0.12117273       1.44570191      -0.01604783       0.04225757      -0.00496674
C        2.65564747      -0.97596734       1.58267207       0.02271729      -0.01945862       0.01864392
C        3.76901069      -1.09472121       0.52462799      -0.00214724       0.01276383       0.01116908
C        3.50141876      -1.07095685      -0.92051804      -0.02168311       0.02300391      -0.00314790
C        2.56149015      -0.31010930      -1.51166995       0.00836343       0.00132951       0.03674336
C        1.22583951      -0.82831000       1.24522810      -0.00799599      -0.00730845       0.00583109
C        0.72093137      -0.14515497       0.20600837       0.00275380       0.01844491      -0.00268852
C       -0.75191751       0.03262698      -0.02538538      -0.02362586       0.00091891       0.03593806
C       -1.21717879      -0.06562231      -1.33474057      -0.01171360       0.01449371       0.01852751
C       -2.59410771       0.22149470      -1.84363813      -0.02997335       0.00944728       0.00285087
C       -3.34522839       1.41907231      -1.28141886       0.00887394       0.01011918       0.03237075
C       -3.51818454       1.61366360       0.05097045       0.01026818      -0.00050995      -0.07870137
C       -3.03313096       0.66495653       1.10311540      -0.01508709       0.04588170       0.05104625
C       -1.58164802       0.26993023       1.11145271       0.03963597      -0.00571337       0.01321227
C       -3.38281952      -0.77864241       0.99286783      -0.01388041      -0.02312644       0.09993895
C       -3.43537795      -1.53149138      -0.14782227       0.00093731      -0.05878485      -0.08094139
C       -3.05976433      -1.15402746      -1.45152493      -0.00416757      -0.01114231       0.01678989
H        0.92739518       1.10177339      -1.50505289       0.04201633      -0.00898906       0.03319894
H        2.19526884       2.75367222      -0.32117074       0.00502749       0.01066264       0.00486153
H        3.88446696       2.35062557       1.36139635      -0.01222060      -0.03108690      -0.00792500
H        4.49575721       0.18150318       2.25384281      -0.02631214      -0.01317455      -0.02952033
H        2.84897560      -1.63920666       2.44952940      -0.00953460       0.01837966      -0.02193869
H        4.59374842      -1.70889692       0.82929060       0.00300012      -0.02268751      -0.00197575
H        4.09240968      -1.73567460      -1.54596079       0.00077583       0.00132088       0.00458053
H        2.42539598      -0.37222028      -2.57724470      -0.00041880      -0.00165153      -0.01161762
H        0.50076119      -1.35265921       1.90305849       0.02402461       0.01051433      -0.01463569
H       -0.48719799      -0.36791896      -2.05616292       0.00677207      -0.00858040      -0.01835725
H       -2.62690798       0.31044420      -2.93114504       0.01202593      -0.00352856       0.00267049
H       -3.68185975       2.20811047      -2.01192008       0.01157930      -0.03488499       0.03160161
H       -3.99738395       2.55694970       0.31124409       0.00068966      -0.01023978       0.01574408
H       -3.32073660       1.13080105       2.13375302       0.01846057      -0.04257973      -0.06409035
H       -1.09012240       0.20159955       2.13479380      -0.02685178       0.00344286      -0.05528448
H       -3.62837342      -1.30254112       1.99787761       0.01829536       0.03400221      -0.06818475
H       -3.72051250      -2.62720356      -0.11548948       0.01470270       0.05103270       0.01830954
H       -3.06932426      -1.93538721      -2.25112733       0.00321424       0.02849790       0.03036339
38
Properties=species:S:1:pos:R:3:forces:R:3 #=T ORCA=T AIMD=T Position=T Step=T 5,=T t=2.5 fs,=T E_Pot=-772.1240205 Hartree,=T Unit=T is=T Angstrom=T energy=-772.1240205 pbc="F F F"
C        1.64785343       0.64051503      -0.75035233      -0.02850464       0.00157621      -0.01444817
C        2.42040010       1.75311225       0.00045482       0.00315026      -0.07399658      -0.00910353
C        3.36440779       1.46938177       0.92143636      -0.01245801       0.02069858       0.00187962
C        3.73407767       0.11571506       1.44859044      -0.02465412       0.05391966      -0.01095657
C        2.65335654      -0.97480782       1.58072878       0.02430918      -0.02046759       0.01802952
C        3.76660776      -1.09291436       0.52303010      -0.00271528       0.01455539       0.01117610
C        3.50345767      -1.07443189      -0.92248982      -0.02286657       0.02606990       0.00187428
C        2.56571787      -0.31397762      -1.51194652       0.00493272       0.00657688       0.04359979
C        1.22213273      -0.82829621       1.24485802      -0.00137333      -0.01022614       0.00997005
C        0.72322624      -0.15325828       0.20423123      -0.00038820       0.02721412      -0.00965834
C       -0.74957518       0.02993520      -0.02865027      -0.02464543       0.00044532       0.04535669
C       -1.21552636      -0.06947694      -1.33369031      -0.01528570       0.01759482       0.01799300
C       -2.58895523       0.21814471      -1.84331887      -0.03790211       0.01269652       0.00629012
C       -3.34884208       1.41742414      -1.28293860       0.01496911       0.00568536       0.03666241
C       -3.51697679       1.61152712       0.05240908       0.01262666      -0.00209763      -0.08825577
C       -3.03036317       0.66188113       1.10327079      -0.01647505       0.05386147       0.05161904
C       -1.57925278       0.26728632       1.11177485       0.04184931      -0.00573877       0.01007602
C       -3.38321875      -0.77793912       0.98888787      -0.01520369      -0.02084937       0.11437978
C       -3.43540021      -1.52746298      -0.14495711       0.00084418      -0.06707406      -0.09915572
C       -3.05722661      -1.15645331      -1.45285370      -0.00499408      -0.00767238       0.02172331
H        0.92102759       1.08703380      -1.50370668       0.04495094      -0.00603216       0.03337110
H        2.18723133       2.74936909      -0.31879085       0.00489710       0.01837956       0.00418448
H        3.88504533       2.35102454       1.35660106      -0.00975468      -0.02979887      -0.00550375
H        4.49738948       0.18600434       2.25678310      -0.02424536      -0.01557924      -0.02829284
H        2.84929880      -1.64354837       2.43849162      -0.00972292       0.01652936      -0.01822119
H        4.59607141      -1.68846539       0.83320085       0.00743665      -0.03063672      -0.00119626
H        4.08730137      -1.74020319      -1.54498689       0.00470053      -0.00262245       0.00165675
H        2.42539959      -0.37593191      -2.57077420      -0.00140897      -0.00230719      -0.02001307
H        0.49394743      -1.34654472       1.89957691       0.02348844       0.00826862      -0.01198593
H       -0.48065810      -0.35327451      -2.05004153       0.01062206      -0.01171309      -0.02439104
H       -2.63511228       0.31033026      -2.92571209       0.01488122      -0.00388520      -0.00321780
H       -3.67597539       2.21015730      -2.01317792       0.01052765      -0.03509477       0.03148356
H       -3.98526575       2.56130165       0.29516121      -0.00170974      -0.00750849       0.02079542
H       -3.31878053       1.14243277       2.13186080       0.01918194      -0.04712519      -0.06516605
H       -1.08851252       0.19694213       2.13528944      -0.02678158       0.00348255      -0.05539357
H       -3.63180220      -1.30107555       1.99661628       0.01871226       0.03436813      -0.06988460
H       -3.72524225      -2.62269288      -0.13268175       0.01442401       0.05082310       0.02336553
H       -3.07653532      -1.93728138      -2.25064487       0.00410267       0.02746713       0.02938911
38
Properties=species:S:1:pos:R:3:forces:R:3 #=T ORCA=T AIMD=T Position=T Step=T 6,=T t=3.0 fs,=T E_Pot=-772.11984638 Hartree,=T Unit=T is=T Angstrom=T energy=-772.11984638 pbc="F F F"
C        1.65148498       0.63901443      -0.74931410      -0.02783969      -0.00213238      -0.01109190
C        2.42063974       1.75792919       0.00789589       0.00064298      -0.08662658      -0.01448548
C        3.36890876       1.46833907       0.92128201      -0.01457801       0.01748666       0.00353759
C        3.73965253       0.11050693       1.45144338      -0.03488202       0.06489926      -0.01856722
C        2.65117956      -0.97375078       1.57886793       0.02533367      -0.02001046       0.01562495
C        3.76416950      -1.09101227       0.52147997      -0.00182146       0.01477546       0.01157405
C        3.50538841      -1.07779339      -0.92446806      -0.02336219       0.02860651       0.00725249
C        2.57000859      -0.31784271      -1.51198616       0.00082284       0.01205360       0.04826556
C        1.21838691      -0.82833842       1.24453951       0.00688584      -0.01230834       0.01301232
C        0.72553849      -0.16128110       0.20238598      -0.00371321       0.03608595      -0.01661121
C       -0.74734820       0.02722300      -0.03169399      -0.02519846      -0.00012239       0.05439020
C       -1.21394378      -0.07326775      -1.33253237      -0.01699892       0.01992077       0.01554652
C       -2.58396697       0.21483593      -1.84296238      -0.04568416       0.01567890       0.00968528
C       -3.35240433       1.41579316      -1.28427006       0.02193994      -0.00066848       0.04170301
C       -3.51568947       1.60936097       0.05337560       0.01471204      -0.00358215      -0.09591157
C       -3.02766229       0.65907519       1.10371079      -0.01672957       0.05995016       0.04835874
C       -1.57660751       0.26458845       1.11215504       0.04170317      -0.00559508       0.00379089
C       -3.38370482      -0.77734429       0.98550180      -0.01525161      -0.01661457       0.12372365
C       -3.43541802      -1.52376845      -0.14261177       0.00153427      -0.07169169      -0.11580475
C       -3.05469473      -1.15894189      -1.45407454      -0.00573203      -0.00230783       0.02804138
H        0.91754538       1.07177448      -1.50016679       0.04579139      -0.00200843       0.03147315
H        2.17944575       2.74623129      -0.31611711       0.00494317       0.02447793       0.00378344
H        3.88499072       2.34947826       1.35140512      -0.00629256      -0.02660156      -0.00227962
H        4.49745015       0.18952497       2.25789822      -0.02043156      -0.01760239      -0.02518537
H        2.84898893      -1.64684607       2.42616850      -0.00941632       0.01337377      -0.01285510
H        4.59890045      -1.66986367       0.83706610       0.01032003      -0.03710979      -0.00094461
H        4.08245703      -1.74494176      -1.54389638       0.00843548      -0.00639514      -0.00118447
H        2.42531110      -0.37982596      -2.56555743      -0.00220975      -0.00283785      -0.02663504
H        0.48861176      -1.33983755       1.89528194       0.02145087       0.00509226      -0.00811296
H       -0.47336802      -0.33927156      -2.04546314       0.01271566      -0.01400361      -0.02844583
H       -2.64241317       0.30996129      -2.92044340       0.01747140      -0.00414967      -0.00891382
H       -3.66935260       2.20992655      -2.01238763       0.00860538      -0.03317742       0.02939881
H       -3.97315637       2.56519958       0.28030154      -0.00393052      -0.00497300       0.02534043
H       -3.31555347       1.15108167       2.12569108       0.01891045      -0.04978506      -0.06260244
H       -1.08864030       0.19247287       2.13216693      -0.02498898       0.00330818      -0.05195178
H       -3.63403645      -1.29735007       1.99077425       0.01812461       0.03263069      -0.06740287
H       -3.72906896      -2.61482038      -0.14849217       0.01330105       0.04722755       0.02810197
H       -3.08353938      -1.93739549      -2.24823646       0.00493789       0.02453327       0.02640845
38
Properties=species:S:1:pos:R:3:forces:R:3 #=T ORCA=T AIMD=T Position=T Step=T 7,=T t=3.5 fs,=T E_Pot=-772.11693486 Hartree,=T Unit=T is=T Angstrom=T energy=-772.11693486 pbc="F F F"
C        1.65500017       0.63748701      -0.74832635      -0.02511042      -0.00673936      -0.00588898
C        2.42088532       1.76231881       0.01533227      -0.00214472      -0.09622314      -0.02007987
C        3.37337497       1.46738192       0.92114553      -0.01748767       0.01265341       0.00435801
C        3.74509192       0.10560284       1.45422305      -0.04622031       0.07461498      -0.02751072
C        2.64911980      -0.97279300       1.57707417       0.02564372      -0.01819947       0.01172068