60
# ORCA AIMD Position Step 0, t=0.00 fs, E_Pot=-1207.45411819 Hartree, Unit is Angstrom
 C      0.2427490011     -2.1967310098     -5.5443240248
 C      0.6661330030     -2.2471120101     -4.0794170183
 O      0.3241140015     -0.9837990044     -3.4466540154
 C     -0.1097230005     -3.3410080150     -3.3353350149
 C      2.2288180100     -2.3289590104     -3.8411130172
 C      2.7703660124     -3.7389800167     -3.6253050162
 C      3.0363560136     -1.6068580072     -4.9271170221
 O      2.3939730107     -1.5684240070     -2.6145230117
 B      1.3134100059     -0.7090660032     -2.5189480113
 C      1.2033680054      0.4433510020     -1.4877620067
 C      2.2520080101      0.6815950031     -0.6445610029
 C      2.3409470105      1.6992550076      0.4083990018
 H      3.2930190147      1.6998130076      0.9606760043
 C      1.1260280050      2.1116170095      1.2649580057
 H      1.3907950062      2.3318620104      2.3104450103
 C     -0.2094920009      1.4857910067      1.1142390050
 B     -1.0279980046      1.2239010055      2.4096800108
 O     -0.5914280026      1.6088650072      3.6646160164
 C     -1.4838120066      0.9971520045      4.6367430208
 C     -1.6632540074      1.9526370087      5.8123510260
 C     -0.8105020036     -0.3005790013      5.1004580228
 C     -2.7892780125      0.7421560033      3.7791840169
 C     -3.7263110167      1.9555330088      3.7440120168
 C     -3.5648400160     -0.5179890023      4.1512460186
 O     -2.2518330101      0.5825630026      2.4381920109
 C     -0.7506790034      1.1172770050     -0.0834590004
 C     -0.0784700004      1.2755840057     -1.4306250064
 H     -0.7633300034      0.8905120040     -2.2080020099
 C      0.2057860009      2.7368410123     -1.7278680077
 C      1.0022840045      3.5206700158     -0.9643280043
 C      1.7116820077      3.1038930139      0.2595200012
 H      2.3181280104      3.8971750175      0.7228570032
 H     -0.8611320039     -2.1355060096     -5.6133690251
 H      0.5702460026     -3.1106800139     -6.0794780272
 H      0.6651500030     -1.3143050059     -6.0586620271
 H     -1.1880350053     -3.0896450138     -3.3549680150
 H      0.2063900009     -3.4037690152     -2.2756210102
 H      0.0263910001     -4.3350750194     -3.8043800170
 H      2.5744310115     -4.3752890196     -4.5116530202
 H      2.3168710104     -4.2172420189     -2.7379230123
 H      3.8659490173     -3.6982400166     -3.4669670155
 H      3.0369620136     -2.1660730097     -5.8832210263
 H      4.0835020183     -1.5029190067     -4.5821460205
 H      2.6362000118     -0.5907090026     -5.1117470229
 H      3.1407860141      0.0368540002     -0.7559650034
 H     -0.6997210031      2.0753530093      6.3450340284
 H     -2.4049180108      1.5544180070      6.5337410293
 H     -1.9957210089      2.9527760132      5.4792020245
 H      0.1989620009     -0.0603460003      5.4871640246
 H     -0.6939270031     -1.0110080045      4.2588230191
 H     -1.3845800062     -0.7983300036      5.9063150265
 H     -4.2472950190      2.1029570094      4.7102780211
 H     -4.4889690201      1.7950560080      2.9572620132
 H     -3.1719640142      2.8819410129      3.4961850157
 H     -3.9158750175     -0.4694180021      5.2016930233
 H     -2.9484620132     -1.4266380064      4.0246800180
 H     -4.4528900199     -0.6155120028      3.4964790157
 H     -1.7540410079      0.6581180029     -0.0681900003
 H     -0.2653650012      3.1745460142     -2.6232160117
 H      1.1520420052      4.5701480205     -1.2675880057
60
# ORCA AIMD Position Step 1, t=0.50 fs, E_Pot=-1207.45053753 Hartree, Unit is Angstrom
 C      0.2468693945     -2.1962313563     -5.5423133023
 C      0.6656500280     -2.2383359816     -4.0709192682
 O      0.3282838448     -0.9832567672     -3.4462844474
 C     -0.1038529137     -3.3452761084     -3.3317050814
 C      2.2253760209     -2.3250933541     -3.8431140766
 C      2.7672599745     -3.7349402046     -3.6268373498
 C      3.0385584325     -1.6088366162     -4.9285791831
 O      2.3973455410     -1.5699293905     -2.6148873340
 B      1.3089566322     -0.7066844700     -2.5187992424
 C      1.2052173105      0.4366302867     -1.4894048189
 C      2.2545831287      0.6808800471     -0.6481477271
 C      2.3423668650      1.6970991663      0.4096221638
 H      3.3111089311      1.6932787655      0.9636982063
 C      1.1215468179      2.1117883599      1.2631039482
 H      1.3920316136      2.3301215041      2.3226083921
 C     -0.2067165339      1.4839865486      1.1139251361
 B     -1.0265589082      1.2233363631      2.4102974754
 O     -0.5919842028      1.6119950368      3.6598795606
 C     -1.4843908575      1.0047242514      4.6415782611
 C     -1.6609063753      1.9525228956      5.8110640249
 C     -0.8150527156     -0.3033201372      5.0986870696
 C     -2.7920578124      0.7420271292      3.7795708484
 C     -3.7248585651      1.9590486086      3.7433813649
 C     -3.5620836943     -0.5147755910      4.1544935480
 O     -2.2509555756      0.5810835475      2.4369141115
 C     -0.7493625329      1.1255277060     -0.0818254214
 C     -0.0795268562      1.2746668401     -1.4308890921
 H     -0.7641029451      0.8888830369     -2.2010693540
 C      0.2020465383      2.7388779693     -1.7275771357
 C      1.0046109324      3.5265422961     -0.9617344928
 C      1.7086663933      3.1051346864      0.2604794668
 H      2.3209590922      3.9100816475      0.7142409029
 H     -0.8496115745     -2.1246056199     -5.6325654257
 H      0.5676802514     -3.0867920966     -6.0659981788
 H      0.6729153611     -1.3179558257     -6.0443959145
 H     -1.1966158774     -3.0938106818     -3.3401118570
 H      0.1969643922     -3.4089896899     -2.2969379753
 H      0.0174827907     -4.3421401389     -3.8110591571
 H      2.5929831293     -4.3797964915     -4.5123759250
 H      2.3271622933     -4.2157120796     -2.7299119677
 H      3.8463477400     -3.7019510563     -3.4548878462
 H      3.0334614311     -2.1736985196     -5.8829061163
 H      4.0716127488     -1.5055703872     -4.5799057151
 H      2.6132550185     -0.5798548308     -5.1087758771
 H      3.1467697556      0.0441131807     -0.7530954982
 H     -0.7099476119      2.0791020028      6.3455948719
 H     -2.3971151066      1.5483385678      6.5295131645
 H     -1.9963745686      2.9352307189      5.4852990072
 H      0.2142525219     -0.0717321274      5.4826101326
 H     -0.6891165807     -1.0231007728      4.2556638661
 H     -1.3946270204     -0.8126513258      5.9038761844
 H     -4.2440014078      2.0909360943      4.7042154963
 H     -4.4932338854      1.7900846323      2.9626062002
 H     -3.1660444160      2.8807511279      3.4916942573
 H     -3.9210205800     -0.4763211585      5.1972360706
 H     -2.9422487000     -1.4249164315      4.0107558525
 H     -4.4620859134     -0.6027645981      3.4965153953
 H     -1.7580982208      0.6678694143     -0.0767147548
 H     -0.2623604763      3.1752988520     -2.6319533775
 H      1.1525885028      4.5790835255     -1.2634450662
60
# ORCA AIMD Position Step 2, t=1.00 fs, E_Pot=-1207.44158413 Hartree, Unit is Angstrom
 C      0.2509474220     -2.1956055611     -5.5402276140
 C      0.6651698702     -2.2296144960     -4.0624673190
 O      0.3324935820     -0.9827441347     -3.4458994623
 C     -0.0981441154     -3.3495390154     -3.3282220118
 C      2.2219370490     -2.3212304454     -3.8450822374
 C      2.7641017603     -3.7309631182     -3.6283424194
 C      3.0406379303     -1.6107080038     -4.9300890906
 O      2.4006215463     -1.5714052715     -2.6153113894
 B      1.3046012316     -0.7043904943     -2.5186774130
 C      1.2071477710      0.4300100795     -1.4909114209
 C      2.2570641948      0.6801372624     -0.6518069808
 C      2.3438476403      1.6949821968      0.4108990788
 H      3.3269275406      1.6868359696      0.9655348899
 C      1.1171858874      2.1119987482      1.2613395394
 H      1.3927077922      2.3279583153      2.3324113925
 C     -0.2040017467      1.4821569192      1.1134854934
 B     -1.0251647973      1.2227506154      2.4109340069
 O     -0.5926111629      1.6150779989      3.6551597772
 C     -1.4849550492      1.0122288259      4.6463141572
 C     -1.6585720748      1.9523643036      5.8098254379
 C     -0.8195141584     -0.3061113903      5.0969376300
 C     -2.7947731474      0.7419426791      3.7799468737
 C     -3.7234140085      1.9625477921      3.7427020483
 C     -3.5593883543     -0.5116298319      4.1576618061
 O     -2.2500483291      0.5796454523      2.4357204269
 C     -0.7480599764      1.1337665645     -0.0800971925
 C     -0.0805561027      1.2737617116     -1.4311409243
 H     -0.7643484256      0.8876068853     -2.1935454088
 C      0.1984209349      2.7410531472     -1.7272245361
 C      1.0068008903      3.5323210834     -0.9592821206
 C      1.7057152958      3.1063908288      0.2614991133
 H      2.3227082775      3.9214183411      0.7050124698
 H     -0.8372593733     -2.1138308618     -5.6514203572
 H      0.5654324359     -3.0636134032     -6.0527937284
 H      0.6805043287     -1.3221589582     -6.0298364164
 H     -1.2030772110     -3.0983739168     -3.3254193758
 H      0.1879744519     -3.4143296986     -2.3173839836
 H      0.0085911755     -4.3476575085     -3.8171021848
 H      2.6115206147     -4.3834854812     -4.5120567160
 H      2.3376971526     -4.2135205615     -2.7232408868
 H      3.8266633718     -3.7053720862     -3.4429934421
 H      3.0299514856     -2.1805769319     -5.8814421233
 H      4.0593430889     -1.5082042254     -4.5778443355
 H      2.5914799825     -0.5713355289     -5.1055093142
 H      3.1517580887      0.0519773741     -0.7502076344
 H     -0.7205775421      2.0826921955      6.3457895939
 H     -2.3886975169      1.5425845265      6.5246164249
 H     -1.9970843267      2.9177153374      5.4913360316
 H      0.2273447639     -0.0834916941      5.4774493930
 H     -0.6846800406     -1.0338883364      4.2537186655
 H     -1.4037433951     -0.8260183701      5.9002039308
 H     -4.2402723404      2.0789857959      4.6976022201
 H     -4.4965221644      1.7853676613      2.9688121528
 H     -3.1608066083      2.8785714491      3.4875216187
 H     -3.9256926050     -0.4831925885      5.1919986321
 H     -2.9369859745     -1.4218448111      3.9971312075
 H     -4.4696540875     -0.5899060185      3.4976453744
 H     -1.7606240415      0.6783316250     -0.0851073069
 H     -0.2586757337      3.1754147258     -2.6392679339
 H      1.1529196407      4.5865214673     -1.2589230124
60
# ORCA AIMD Position Step 3, t=1.50 fs, E_Pot=-1207.42898985 Hartree, Unit is Angstrom
 C      0.2549502948     -2.1947207752     -5.5379467988
 C      0.6646784193     -2.2210155652     -4.0541178511
 O      0.3367144223     -0.9822376408     -3.4454959831
 C     -0.0927224088     -3.3537747254     -3.3250670925
 C      2.2185229540     -2.3173870628     -3.8470006944
 C      2.7608186390     -3.7270714883     -3.6298094362
 C      3.0424568308     -1.6124077047     -4.9316734605
 O      2.4037774133     -1.5728292387     -2.6157945451
 B      1.3004271206     -0.7022295978     -2.5185756860
 C      1.2091376928      0.4235368503     -1.4922589365
 C      2.2594439886      0.6793848928     -0.6555195381
 C      2.3454283451      1.6929062493      0.4122407082
 H      3.3396975484      1.6805604862      0.9658527946
 C      1.1130106577      2.1122660238      1.2597294057
 H      1.3926180933      2.3252655951      2.3391264323
 C     -0.2013664222      1.4803069646      1.1129474371
 B     -1.0238291812      1.2221337140      2.4115646989
 O     -0.5933080048      1.6181228421      3.6504840692
 C     -1.4854887102      1.0196027311      4.6508877265
 C     -1.6562598073      1.9520864124      5.8086554360
 C     -0.8238316320     -0.3089750813      5.0952198961
 C     -2.7973924522      0.7419409225      3.7803126090
 C     -3.7219640566      1.9659893391      3.7419355777
 C     -3.5567875740     -0.5085781273      4.1606768413
 O     -2.2491126214      0.5782458815      2.4346222809
 C     -0.7468004306      1.1419710506     -0.0783148691
 C     -0.0815166828      1.2728893049     -1.4313494937
 H     -0.7643285235      0.8865654739     -2.1857379190
 C      0.1949439478      2.7433968449     -1.7268014327
 C      1.0088053986      3.5379732257     -0.9570113451
 C      1.7028587984      3.1076852479      0.2625946917
 H      2.3231664709      3.9307898542      0.6952165658
 H     -0.8245220207     -2.1031864705     -5.6697736363
 H      0.5642470110     -3.0430329729     -6.0408800900
 H      0.6882073198     -1.3264111201     -6.0153124709
 H     -1.2067481763     -3.1034220554     -3.3110223428
 H      0.1802336031     -3.4200428258     -2.3346467755
 H     -0.0001631720     -4.3513289642     -3.8224049361
 H      2.6298430617     -4.3863259470     -4.5106816710
 H      2.3482254746     -4.2106248522     -2.7181283713
 H      3.8081156522     -3.7082288619     -3.4312008893
 H      3.0264790694     -2.1866081076     -5.8788591937
 H      4.0475879235     -1.5106455774     -4.5757225602
 H      2.5715029941     -0.5660410361     -5.1019342435
 H      3.1559125479      0.0602447360     -0.7474225404
 H     -0.7308949123      2.0861851411      6.3459227701
 H     -2.3799038343      1.5370385196      6.5192519112
 H     -1.9983016152      2.9015031388      5.4969076940
 H      0.2374344409     -0.0957121359      5.4715733655
 H     -0.6808183544     -1.0429975892      4.2531595799
 H     -1.4116813295     -0.8381603002      5.8950903084
 H     -4.2363334925      2.0673692022      4.6909933968
 H     -4.4987961062      1.7810053691      2.9757782201
 H     -3.1562890067      2.8755423247      3.4836868286
 H     -3.9298637263     -0.4899986750      5.1864264017
 H     -2.9329008482     -1.4172366965      3.9839164524
 H     -4.4751269588     -0.5770034355      3.5001241446
 H     -1.7614686974      0.6895958119     -0.0932255693
 H     -0.2542883512      3.1748539207     -2.6449899951
 H      1.1530419822      4.5923841843     -1.2540170632
60
# ORCA AIMD Position Step 4, t=2.00 fs, E_Pot=-1207.41544684 Hartree, Unit is Angstrom
 C      0.2588482847     -2.1934455001     -5.5353444594
 C      0.6641633436     -2.2125998779     -4.0459163579
 O      0.3409212500     -0.9817118008     -3.4450706275
 C     -0.0876885439     -3.3579593891     -3.3224152093
 C      2.2151514692     -2.3135764273     -3.8488570600
 C      2.7573393851     -3.7232753505     -3.6312341492
 C      3.0438876918     -1.6138913442     -4.9333519482
 O      2.4067957814     -1.5741824282     -2.6163363646
 B      1.2965084242     -0.7002390672     -2.5184845036
 C      1.2111644499      0.4172482003     -1.4934288371
 C      2.2617129534      0.6786444387     -0.6592687635
 C      2.3471316410      1.6908718120      0.4136502368
 H      3.3488748017      1.6745218684      0.9644457567
 C      1.1090776244      2.1126040057      1.2583166612
 H      1.3916191448      2.3219856585      2.3422652285
 C     -0.1988256567      1.4784394517      1.1123389628
 B     -1.0225642279      1.2214748069      2.4121661625
 O     -0.5940742588      1.6211422160      3.6458747600
 C     -1.4859760530      1.0267876142      4.6552388819
 C     -1.6539729222      1.9516162621      5.8075671579
 C     -0.8279665908     -0.3119287803      5.0935367954
 C     -2.7998868236      0.7420592554      3.7806696277
 C     -3.7204911886      1.9693326751      3.7410478279
 C     -3.5543041086     -0.5056333843      4.1634753770
 O     -2.2481489403      0.5768805899      2.4336293796
 C     -0.7456030853      1.1501313002     -0.0765205161
 C     -0.0823653733      1.2720720247     -1.4314806857
 H     -0.7643282342      0.8856229500     -2.1779708524
 C      0.1916473179      2.7459337184     -1.7262935658
 C      1.0105797853      3.5434650858     -0.9549544916
 C      1.7001153678      3.1090327705      0.2637762990
 H      2.3222196028      3.9379356997      0.6849585571
 H     -0.8118757807     -2.0926545482     -5.6875109557
 H      0.5648830599     -3.0269470179     -6.0312803995
 H      0.6963533625     -1.3301703294     -6.0011518818
 H     -1.2071817232     -3.1089948751     -3.2970392960
 H      0.1745200742     -3.4264007353     -2.3464268498
 H     -0.0086557049     -4.3529785133     -3.8269208339
 H      2.6477710753     -4.3883346542     -4.5083006995
 H      2.3584623970     -4.2070334331     -2.7146865324
 H      3.7918905203     -3.7102607946     -3.4193892279
 H      3.0230872834     -2.1917494558     -5.8752562600
 H      4.0372354831     -1.5127260750     -4.5732836552
 H      2.5538282949     -0.5645853450     -5.0980786697
 H      3.1594760983      0.0686768197     -0.7448616178
 H     -0.7401503131      2.0896630527      6.3463349971
 H     -2.3710215457      1.5315389787      6.5136762046
 H     -2.0005068814      2.8878716628      5.5016155865
 H      0.2439183384     -0.1084400371      5.4649360062
 H     -0.6777114488     -1.0501500942      4.2540615888
 H     -1.4182727854     -0.8488752570      5.8884115410
 H     -4.2324212169      2.0563258040      4.6849641281
 H     -4.5000894892      1.7770742590      2.9833426158
 H     -3.1524767931      2.8718712760      3.4801849363
 H     -3.9335323615     -0.4967177772      5.1809898677
 H     -2.9301423476     -1.4110012089      3.9711943323
 H     -4.4781899089     -0.5641254089      3.5041023633
 H     -1.7605931203      0.7017155355     -0.1009370963
 H     -0.2492141625      3.1736199435     -2.6490420630
 H      1.1529756594      4.5967068300     -1.2487473518
60
# ORCA AIMD Position Step 5, t=2.50 fs, E_Pot=-1207.40397153 Hartree, Unit is Angstrom
 C      0.2626213601     -2.1916711922     -5.5323091407
 C      0.6636141600     -2.2044265455     -4.0379033071
 O      0.3450904585     -0.9811379007     -3.4446189906
 C     -0.0831130206     -3.3620678606     -3.3204003815
 C      2.2118390740     -2.3098094776     -3.8506395084
 C      2.7536061723     -3.7195738676     -3.6326161582
 C      3.0448195947     -1.6151302254     -4.9351346293
 O      2.4096624670     -1.5754480726     -2.6169373462
 B      1.2929153658     -0.6984530502     -2.5183931416
 C      1.2132078440      0.4111772268     -1.4944030849
 C      2.2638614970      0.6779390393     -0.6630390539
 C      2.3489637150      1.6888770268      0.4151204213
 H      3.3541347744      1.6687841626      0.9612271315
 C      1.1054336721      2.1130220885      1.2571245238
 H      1.3896283552      2.3181065881      2.3415677214
 C     -0.1963912761      1.4765563573      1.1116887989
 B     -1.0213804098      1.2207629167      2.4127137147
 O     -0.5949095730      1.6241509836      3.6413508739
 C     -1.4864021883      1.0337312127      4.6593100844
 C     -1.6517117088      1.9508968515      5.8065695898
 C     -0.8318952913     -0.3149822015      5.0918846309
 C     -2.8022293639      0.7423348728      3.7810200108
 C     -3.7189768907      1.9725381771      3.7400124663
 C     -3.5519522906     -0.5027963551      4.1660061678
 O     -2.2471572729      0.5755442233      2.4327504746
 C     -0.7444769127      1.1582476156     -0.0747547988
 C     -0.0830596905      1.2713331136     -1.4314997731
 H     -0.7646400379      0.8846387968     -2.1705684411
 C      0.1885611315      2.7486824469     -1.7256810773
 C      1.0120842493      3.5487616542     -0.9531346227
 C      1.6974927771      3.1104391702      0.2650477947
 H      2.3198441867      3.9427243131      0.6744000369
 H     -0.7997612590     -2.0822068750     -5.7045529519
 H      0.5679892332     -3.0169211397     -6.0248278999
 H      0.7052696661     -1.3329332427     -5.9876482108
 H     -1.2041320455     -3.1150902636     -3.2835728719
 H      0.1714697944     -3.4336608261     -2.3508518220
 H     -0.0167551282     -4.3525482502     -3.8306597392
 H      2.6651454755     -4.3895638016     -4.5050150056
 H      2.3680986589     -4.2027966530     -2.7129370328
 H      3.7789951159     -3.7112215477     -3.4074333078
 H      3.0198175317     -2.1960177497     -5.8708026472
 H      4.0290795026     -1.5142964561     -4.5702847269
 H      2.5388470605     -0.5673329812     -5.0940073075
 H      3.1627194186      0.0770282040     -0.7426444512
 H     -0.7476595648      2.0932155245      6.3473426036
 H     -2.3623414965      1.5259102714      6.5081550381
 H     -2.0041338005      2.8779057857      5.5051332067
 H      0.2464110049     -0.1216782254      5.4575600663
 H     -0.6755149768     -1.0551827919      4.2563771569
 H     -1.4234443921     -0.8580428921      5.8801508764
 H     -4.2287512388      2.0460682774      4.6800523862
 H     -4.5004941537      1.7736305339      2.9912971179
 H     -3.1493123397      2.8678165875      3.4769921366
 H     -3.9367079321     -0.5033368081      5.1761550808
 H     -2.9287803234     -1.4031487890      3.9590209073
 H     -4.4786764508     -0.5513419066      3.5096310320
 H     -1.7580777475      0.7146985806     -0.1081206455
 H     -0.2435165098      3.1717652555     -2.6514539249
 H      1.1527514850      4.5996250901     -1.2431604155
60
# ORCA AIMD Position Step 6, t=3.00 fs, E_Pot=-1207.39667761 Hartree, Unit is Angstrom
 C      0.2662663066     -2.1893373789     -5.5287646253
 C      0.6630229593     -2.1965588966     -4.0301195553
 O      0.3491968068     -0.9804848846     -3.4441360242
 C     -0.0790314849     -3.3660722569     -3.3190812447
 C      2.2086031456     -2.3060984502     -3.8523362434
 C      2.7495875863     -3.7159586832     -3.6339549048
 C      3.0451658650     -1.6161069858     -4.9370184198
 O      2.4123641439     -1.5766102754     -2.6175982369
 B      1.2897167023     -0.6969030914     -2.5182891924
 C      1.2152472051      0.4053570817     -1.4951642951
 C      2.2658789652      0.6772931222     -0.6668131987
 C      2.3509131555      1.6869205207      0.4166339571
 H      3.3553569670      1.6634099980      0.9562234765
 C      1.1021202447      2.1135252766      1.2561576682
 H      1.3866252546      2.3136617972      2.3369934953
 C     -0.1940739070      1.4746604604      1.1110263342
 B     -1.0202878516      1.2199874333      2.4131820502
 O     -0.5958133076      1.6271637523      3.6369318603
 C     -1.4867523013      1.0403800986      4.6630419484
 C     -1.6494768459      1.9499005386      5.8056678456
 C     -0.8356046912     -0.3181342105      5.0902549886
 C     -2.8043925886      0.7428043942      3.7813663995
 C     -3.7174047953      1.9755655431      3.7388149588
 C     -3.5497413976     -0.5000580092      4.1682306337
 O     -2.2461379064      0.5742315475      2.4319942796
 C     -0.7434217803      1.1663235002     -0.0730586847
 C     -0.0835586298      1.2706963964     -1.4313735709
 H     -0.7655352698      0.8834836517     -2.1638318554
 C      0.1857167140      2.7516540924     -1.7249387745
 C      1.0132815401      3.5538217882     -0.9515681918
 C      1.6949903038      3.1118993094      0.2664063076
 H      2.3161096415      3.9451489744      0.6637641326
 H     -0.7885720489     -2.0718175405     -5.7208373145
 H      0.5739786264     -3.0138771927     -6.0219824962
 H      0.7152551861     -1.3342693065     -5.9750551186
 H     -1.1975475126     -3.1216609460     -3.2707160563
 H      0.1714733882     -3.4420247944     -2.3469024441
 H     -0.0243183419     -4.3501058212     -3.8336923490
 H      2.6818159675     -4.3900971486     -4.5009763424
 H      2.3767994004     -4.1980093187     -2.7128142327
 H      3.7701430198     -3.7108807702     -3.3952463805
 H      3.0167114611     -2.1994812291     -5.8657327650
 H      4.0237227032     -1.5152366375     -4.5665401265
 H      2.5268526795     -0.5744263376     -5.0898188786
 H      3.1659282778      0.0850481288     -0.7408886922
 H     -0.7528479879      2.0969292658      6.3492065681
 H     -2.3541568764      1.5199728103      6.5029616608
 H     -2.0095051069      2.8723606012      5.5072516204
 H      0.2447219039     -0.1353835116      5.4495337602
 H     -0.6743639846     -1.0580347554      4.2599435016
 H     -1.4272074700     -0.8656123065      5.8703950369
 H     -4.2254976068      2.0367889992      4.6767171389
 H     -4.5001570966      1.7707130204      2.9993858246
 H     -3.1467029089      2.8636819719      3.4740696035
 H     -3.9393935368     -0.5098460803      5.1723534571
 H     -2.9288064068     -1.3937966949      3.9474311729
 H     -4.4765654358     -0.5387314579      3.5166613337
 H     -1.7541203999      0.7285001385     -0.1146626891
 H     -0.2373035972      3.1693877582     -2.6523511012
 H      1.1524099126      4.6013649446     -1.2373307891
60
# ORCA AIMD Position Step 7, t=3.50 fs, E_Pot=-1207.39375122 Hartree, Unit is Angstrom
 C      0.2698000931     -2.1864501325     -5.5246887041
 C      0.6623849571     -2.1890718384     -4.0226141690
 O      0.3532091854     -0.9797204939     -3.4436166463
 C     -0.0754437532     -3.3699400604     -3.3184181875
 C      2.2054654099     -2.3024611268     -3.8539336351
 C      2.7452910676     -3.7124186190     -3.6352455146
 C      3.0448725613     -1.6168132911     -4.9389828649
 O      2.4148854385     -1.5776527612     -2.6183192738
 B      1.2869827369     -0.6956195495     -2.5181586204
 C      1.2172594403      0.3998269074     -1.4956950792
 C      2.2677537265      0.6767315394     -0.6705686143
 C      2.3529486622      1.6850032644      0.4181616629
 H      3.3526325504      1.6584650539      0.9495816807
 C      1.0991759378      2.1141134468      1.2554030112
 H      1.3826591761      2.3087345781      2.3287360785
 C     -0.1918853979      1.4727572177      1.1103816221
 B     -1.0192972959      1.2191391279      2.4135449790
 O     -0.5967834704      1.6301914960      3.6326421724
 C     -1.4870114970      1.0466732790      4.6663700847
 C     -1.6472732984      1.9486409040      5.8048652918
 C     -0.8390887922     -0.3213684243      5.0886367169
 C     -2.8063463424      0.7435029756      3.7817117107
 C     -3.7157644716      1.9783721990      3.7374568063
 C     -3.5476790215     -0.4974027950      4.1701240062
 O     -2.2450925781      0.5729388111      2.4313701715
 C     -0.7424298998      1.1743567553     -0.0714742903
 C     -0.0838247983      1.2701855006     -1.4310732032
 H     -0.7672344505      0.8820566398     -2.1580170349
 C      0.1831491753      2.7548490396     -1.7240375480
 C      1.0141360769      3.5585938781     -0.9502669107
 C      1.6926011509      3.1133955492      0.2678408700
 H      2.3111855792      3.9453308174      0.6533435091
 H     -0.7786329406     -2.0614797869     -5.7362955558
 H      0.5829252845     -3.0178567465     -6.0226926370
 H      0.7265415981     -1.3338680147     -5.9635777957
 H     -1.1875793184     -3.1286076677     -3.2585593028
 H      0.1746129223     -3.4515964866     -2.3347071204
 H     -0.0311853615     -4.3458520585     -3.8361525631
 H      2.6976278540     -4.3900436468     -4.4963840069
 H      2.3842066510     -4.1928120655     -2.7141701112
 H      3.7656547860     -3.7090281795     -3.3828268313
 H      3.0138138318     -2.2022521263     -5.8603419833
 H      4.0214870549     -1.5154661489     -4.5619654124
 H      2.5180465091     -0.5857826308     -5.0856481349
 H      3.1693729422      0.0924909788     -0.7397085745
 H     -0.7553107681      2.1008729615      6.3520903839
 H     -2.3467499608      1.5135636708      6.4983621753
 H     -2.0167634570      2.8715308659      5.5079206897
 H      0.2388643717     -0.1494553117      5.4410187384
 H     -0.6743714083     -1.0587493817      4.2644748248
 H     -1.4296577262     -0.8715984185      5.8593463082
 H     -4.2227702689      2.0286676169      4.6752908002
 H     -4.4992734810      1.7683470438      3.0073078488
 H     -3.1445327662      2.8598040687      3.4713699978
 H     -3.9415684110     -0.5162315718      5.1699486030
 H     -2.9301321925     -1.3831808515      3.9364461360
 H     -4.4719887421     -0.5263909644      3.5250371148
 H     -1.7490366020      0.7430112325     -0.1204543919
 H     -0.2307307795      3.1666301999     -2.6519501865
 H      1.1519996182      4.6022297322     -1.2313637684
60
# ORCA AIMD Position Step 8, t=4.00 fs, E_Pot=-1207.39339263 Hartree, Unit is Angstrom
 C      0.2732591125     -2.1830821697     -5.5201196678
 C      0.6616988781     -2.1820526467     -4.0154461973
 O      0.3570895186     -0.9788126282     -3.4430562035
 C     -0.0723150133     -3.3736340672     -3.3182750664
 C      2.2024527125     -2.2989222430     -3.8554158818
 C      2.7407681945     -3.7089422889     -3.6364764280
 C      3.0439265788     -1.6172509318     -4.9409882235
 O      2.4172083475     -1.5785587465     -2.6190995893
 B      1.2847844563     -0.6946311482     -2.5179860321
 C      1.2192182367      0.3946329136     -1.4959789997
 C      2.2694751983      0.6762780047     -0.6742759120
 C      2.3550169918      1.6831295648      0.4196616739
 H      3.3462915727      1.6540169735      0.9415807560
 C      1.0966358674      2.1147805903      1.2548284065
 H      1.3778588071      2.3034618274      2.3172515009
 C     -0.1898391434      1.4708556295      1.1097849991
 B     -1.0184200293      1.2182109828      2.4137762008
 O     -0.5978160968      1.6332399632      3.6285124812
 C     -1.4871651192      1.0525413242      4.6692257924
 C     -1.6451118710      1.9471775684      5.8041665842
 C     -0.8423485641     -0.3246512330      5.0870167219
 C     -2.8080577852      0.7444626240      3.7820590385
 C     -3.7140539318      1.9809144421      3.7359580728
 C     -3.5457721436     -0.4948103488      4.1716785377
 O     -2.2440250916      0.5716642754      2.4308879432
 C     -0.7414868978      1.1823355451     -0.0700443398
 C     -0.0838275449      1.2698222415     -1.4305773623
 H     -0.7698760072      0.8803024807     -2.1533066074
 C      0.1808968849      2.7582552249     -1.7229464340
 C      1.0146152083      3.5630164645     -0.9492377845
 C      1.6903132559      3.1148969220      0.2693320108
 H      2.3053468680      3.9435264794      0.6434977620