38
# ORCA AIMD Position Step 0, t=0.00 fs, E_Pot=-772.17431175 Hartree, Unit is Angstrom
 C      1.6274740073      0.6569150029     -0.7424590033
 C      2.4270340109      1.7311010078     -0.0299370001
 C      3.3505930150      1.4812350066      0.9247080041
 C      3.7090980166      0.1478160007      1.4367050064
 C      2.6589830119     -0.9670720043      1.6015880072
 C      3.7674780169     -1.1000480049      0.5372840024
 C      3.4817130156     -1.0565010047     -0.9074090041
 C      2.5346980114     -0.2929960013     -1.4981200067
 C      1.2309540055     -0.7945710036      1.2737280057
 C      0.7015890031     -0.0815260004      0.2346260011
 C     -0.7606640034      0.0137530001     -0.0344190002
 C     -1.1602980052      0.0502610002     -1.3449870060
 C     -2.5851190116      0.1583700007     -1.8362350082
 C     -3.3077470148      1.3807150062     -1.3008600058
 C     -3.5061050157      1.6246470073      0.0097670000
 C     -3.0569570137      0.7518060034      1.1106970050
 C     -1.7126010077      0.0139620001      1.1035390049
 C     -3.0727950138     -0.7713580035      1.0331620046
 C     -3.4135160153     -1.5495740069     -0.1703710008
 C     -3.2073710144     -1.1693250052     -1.4530570065
 H      0.9805780044      1.1668270052     -1.4752780066
 H      2.2375370100      2.7768030124     -0.3255390015
 H      3.8857240174      2.3332150104      1.3759290062
 H      4.4774460201      0.1558620007      2.2251090100
 H      2.8356230127     -1.6006910072      2.4846130111
 H      4.5676770205     -1.8025410081      0.8173970037
 H      4.1010050184     -1.7130880077     -1.5410190069
 H      2.4103120108     -0.3541910016     -2.5931520116
 H      0.5389860024     -1.3417410060      1.9354460087
 H     -0.4025810018     -0.1551380007     -2.1168530095
 H     -2.5623000115      0.2401900011     -2.9395080132
 H     -3.6737100165      2.1181730095     -2.0352900091
 H     -4.0351480181      2.5452840114      0.3126820014
 H     -3.3233960149      1.1265040050      2.1114660095
 H     -1.2245490055      0.0057480000      2.0906970094
 H     -3.3766670151     -1.2549850056      1.9751600088
 H     -3.7835130169     -2.5715040115      0.0121330001
 H     -3.3594620150     -1.9023380085     -2.2619400101
38
# ORCA AIMD Position Step 1, t=0.50 fs, E_Pot=-772.17115711 Hartree, Unit is Angstrom
 C      1.6316384078      0.6553277648     -0.7410723203
 C      2.4270390984      1.7369917794     -0.0226890485
 C      3.3553210962      1.4796831155      0.9246692276
 C      3.7148433296      0.1419209274      1.4395547063
 C      2.6563145211     -0.9656179348      1.5993498974
 C      3.7651130703     -1.0984365792      0.5354694037
 C      3.4841444555     -1.0603274444     -0.9091601993
 C      2.5385946512     -0.2966831596     -1.4989240870
 C      1.2275987086     -0.7945421269      1.2734234785
 C      0.7037013916     -0.0896371079      0.2327115808
 C     -0.7578958157      0.0110683175     -0.0380898166
 C     -1.1585736411      0.0462744246     -1.3443119130
 C     -2.5796580718      0.1549833895     -1.8359012854
 C     -3.3113544594      1.3788311341     -1.3029652939
 C     -3.5050554282      1.6225151561      0.0124934260
 C     -3.0540078037      0.7481369155      1.1099833340
 C     -1.7109054307      0.0114654908      1.1036362316
 C     -3.0729952699     -0.7702113342      1.0277986457
 C     -3.4135975552     -1.5447708963     -0.1664322618
 C     -3.2048083690     -1.1714668042     -1.4546499383
 H      0.9658443051      1.1549878697     -1.4811374620
 H      2.2283266557      2.7731113301     -0.3246684841
 H      3.8897137460      2.3408901761      1.3736260674
 H      4.4855024241      0.1625946623      2.2349018348
 H      2.8380280637     -1.6095777572      2.4796974392
 H      4.5712426339     -1.7800974082      0.8221560353
 H      4.0971684008     -1.7192383134     -1.5421786528
 H      2.4100551027     -0.3577015269     -2.5873181803
 H      0.5267825304     -1.3386776191      1.9360172353
 H     -0.3958638456     -0.1401125212     -2.1091000185
 H     -2.5722458537      0.2407729537     -2.9368514919
 H     -3.6707105565      2.1277959319     -2.0435050522
 H     -4.0242974123      2.5530942217      0.2949072670
 H     -3.3252727925      1.1460489254      2.1232154705
 H     -1.2170912450      0.0004106562      2.1031568891
 H     -3.3839786762     -1.2607875337      1.9881530164
 H     -3.7915879287     -2.5782597770     -0.0075577425
 H     -3.3670694374     -1.9107602979     -2.2684049383
38
# ORCA AIMD Position Step 2, t=1.00 fs, E_Pot=-772.16601502 Hartree, Unit is Angstrom
 C      1.6357371877      0.6537708180     -0.7397363189
 C      2.4271216285      1.7428210324     -0.0153732751
 C      3.3599830284      1.4782109614      0.9245720696
 C      3.7205906168      0.1360478196      1.4424279108
 C      2.6537209146     -0.9642056606      1.5971591349
 C      3.7627537066     -1.0968085646      0.5337110095
 C      3.4864848954     -1.0640788879     -0.9109845209
 C      2.5425839239     -0.3004406778     -1.4996627392
 C      1.2241386389     -0.7944755671      1.2730499868
 C      0.7058896160     -0.0977911535      0.2308859736
 C     -0.7551957462      0.0083792026     -0.0418719869
 C     -1.1567704237      0.0422991323     -1.3435186367
 C     -2.5742314075      0.1515931807     -1.8355872661
 C     -3.3149879735      1.3770136230     -1.3049617037
 C     -3.5039878367      1.6203899243      0.0150248576
 C     -3.0510819512      0.7445245600      1.1094029104
 C     -1.7091797617      0.0089493951      1.1038274013
 C     -3.0731834692     -0.7690972543      1.0226429676
 C     -3.4136881126     -1.5400515441     -0.1627078820
 C     -3.2022929812     -1.1737050148     -1.4561464380
 H      0.9525655713      1.1425109103     -1.4856344491
 H      2.2194452385      2.7684746281     -0.3233543235
 H      3.8928966673      2.3470886075      1.3706905927
 H      4.4921874885      0.1690709738      2.2432973835
 H      2.8400248389     -1.6174021867      2.4733902775
 H      4.5739658244     -1.7573162280      0.8266372990
 H      4.0926769123     -1.7246873648     -1.5425886382
 H      2.4099418837     -0.3611877637     -2.5804810482
 H      0.5156786352     -1.3347807311      1.9356286563
 H     -0.3898235667     -0.1245099716     -2.1007944561
 H     -2.5820153795      0.2411038359     -2.9331155916
 H     -3.6670550941      2.1358438128     -2.0503285571
 H     -4.0128068871      2.5596772028      0.2769545930
 H     -3.3263975799      1.1643972542      2.1324444724
 H     -1.2107701345     -0.0050567254      2.1133628518
 H     -3.3901925479     -1.2653581759      1.9987202242
 H     -3.7990228395     -2.5830309827     -0.0271552853
 H     -3.3747765430     -1.9177869626     -2.2732877293
38
# ORCA AIMD Position Step 3, t=1.50 fs, E_Pot=-772.16000752 Hartree, Unit is Angstrom
 C      1.6397423416      0.6522495199     -0.7384716948
 C      2.4272646682      1.7485119355     -0.0080086762
 C      3.3645947292      1.4768399965      0.9244408825
 C      3.7263293928      0.1302583897      1.4453225526
 C      2.6512175151     -0.9628624936      1.5950409442
 C      3.7603914152     -1.0951408205      0.5320098224
 C      3.4887294708     -1.0677458359     -0.9128708267
 C      2.5466586080     -0.3042501627     -1.5002932087
 C      1.2205773176     -0.7943996624      1.2726428405
 C      0.7081464523     -0.1059541655      0.2291127162
 C     -0.7525681629      0.0056732153     -0.0457141123
 C     -1.1549000838      0.0383509986     -1.3426146176
 C     -2.5688776973      0.1482094200     -1.8352906951
 C     -3.3186353832      1.3752675422     -1.3068400442
 C     -3.5028883749      1.6182679719      0.0172882690
 C     -3.0482065839      0.7410401083      1.1090312166
 C     -1.7073824316      0.0064077234      1.1041469188
 C     -3.0733781770     -0.7680524348      1.0178305987
 C     -3.4138151347     -1.5354895237     -0.1592952630
 C     -3.1998331586     -1.1760577798     -1.4575391693
 H      0.9413108223      1.1293298921     -1.4883486748
 H      2.2109075814      2.7634068549     -0.3216062511
 H      3.8952182192      2.3515170631      1.3670992183
 H      4.4972872779      0.1750963036      2.2500167238
 H      2.8415097791     -1.6240281360      2.4655641567
 H      4.5761738623     -1.7347860452      0.8309020209
 H      4.0877171758     -1.7296137012     -1.5423542127
 H      2.4099206123     -0.3646979751     -2.5731805005
 H      0.5059057360     -1.3300025663      1.9342070475
 H     -0.3842638421     -0.1084888696     -2.0923031858
 H     -2.5913921174      0.2411463281     -2.9285478001
 H     -3.6626260307      2.1419336632     -2.0554067772
 H     -4.0007843472      2.5650995053      0.2591600648
 H     -3.3264972134      1.1809404714      2.1382704852
 H     -1.2059211493     -0.0106480699      2.1206401848
 H     -3.3950131030     -1.2682628141      2.0059315843
 H     -3.8056279303     -2.5852572479     -0.0463792310
 H     -3.3824536239     -1.9230820392     -2.2762062380
38
# ORCA AIMD Position Step 4, t=2.00 fs, E_Pot=-772.15414175 Hartree, Unit is Angstrom
 C      1.6436366398      0.6507603545     -0.7372883014
 C      2.4274532649      1.7539879203     -0.0006086521
 C      3.3691689752      1.4755815368      0.9242955689
 C      3.7320422760      0.1246109538      1.4482293005
 C      2.6488156413     -0.9616077623      1.5930093110
 C      3.7580135540     -1.0934099902      0.5303639001
 C      3.4908730248     -1.0713179562     -0.9148032581
 C      2.5508123911     -0.3080931695     -1.5007703635
 C      1.2169250794     -0.7943380979      1.2722326696
 C      0.7104639876     -0.1140949056      0.2273525733
 C     -0.7500146660      0.0029363414     -0.0495646722
 C     -1.1529767817      0.0344437812     -1.3416078862
 C     -2.5636319409      0.1448388452     -1.8350034251
 C     -3.3222806086      1.3735860922     -1.3085860919
 C     -3.5017411433      1.6161402714      0.0192168951
 C     -3.0454003196      0.7377443466      1.1089180909
 C     -1.7054806171      0.0038332126      1.1046108545
 C     -3.0735897080     -0.7671003342      1.0134693379
 C     -3.4140018867     -1.5311434494     -0.1562880402
 C     -3.1974335580     -1.1785329628     -1.4588140587
 H      0.9325301056      1.1154603755     -1.4889916544
 H      2.2027047680      2.7584595144     -0.3194560387
 H      3.8966950230      2.3540012308      1.3628837376
 H      4.5007019445      0.1804867727      2.2548978464
 H      2.8424063862     -1.6294044728      2.4562015679
 H      4.5782265945     -1.7130903990      0.8350267613
 H      4.0825100375     -1.7342432650     -1.5416237303
 H      2.4099283544     -0.3682849563     -2.5660001903
 H      0.4976052386     -1.3243553223      1.9317567338
 H     -0.3789621383     -0.0921910878     -2.0840029843
 H     -2.6001731945      0.2408728748     -2.9234498147
 H     -3.6573671072      2.1458099959     -2.0585109667
 H     -3.9883568843      2.5694911421      0.2418538787
 H     -3.3253789857      1.1951888609      2.1401098037
 H     -1.2027694485     -0.0163596794      2.1245404952
 H     -3.3982381067     -1.2692137135      2.0091476434
 H     -3.8112770615     -2.5845478620     -0.0649338355
 H     -3.3899977176     -1.9264300661     -2.2769150648
38
# ORCA AIMD Position Step 5, t=2.50 fs, E_Pot=-772.14915646 Hartree, Unit is Angstrom
 C      1.6474121706      0.6492925506     -0.7361856076
 C      2.4276741885      1.7591724612      0.0068148026
 C      3.3737139616      1.4744367601      0.9241529244
 C      3.7377024692      0.1191627788      1.4511302409
 C      2.6465237076     -0.9604530369      1.5910677050
 C      3.7556073842     -1.0915958810      0.5287701557
 C      3.4929111194     -1.0747845804     -0.9167611513
 C      2.5550375628     -0.3119497564     -1.5010495284
 C      1.2132015252     -0.7943107496      1.2718456091
 C      0.7128331862     -0.1221810762      0.2255638421
 C     -0.7475353756      0.0001535806     -0.0533692638
 C     -1.1510153749      0.0305905666     -1.3405096331
 C     -2.5585286577      0.1414863988     -1.8347129291
 C     -3.3259019753      1.3719514774     -1.3101793773
 C     -3.5005288397      1.6139932996      0.0207499261
 C     -3.0426746279      0.7346889357      1.1090902631
 C     -1.7034518621      0.0012180495      1.1052171666
 C     -3.0738203661     -0.7662526754      1.0096427860
 C     -3.4142664169     -1.5270577434     -0.1537765517
 C     -3.1950960744     -1.1811276201     -1.4599488545
 H      0.9265583988      1.1009972472     -1.4874029668
 H      2.1948152549      2.7541886493     -0.3169486876
 H      3.8974111836      2.3544831472      1.3581303686
 H      4.5024422365      0.1850693424      2.2578925185
 H      2.8426655307     -1.6335625330      2.4453956773
 H      4.5804762772     -1.6927863318      0.8390868691
 H      4.0772991504     -1.7388309284     -1.5405753036
 H      2.4098969944     -0.3720022351     -2.5595358513
 H      0.4908268727     -1.3179144169      1.9283620457
 H     -0.3736898384     -0.0757481240     -2.0762670945
 H     -2.6081668626      0.2402634921     -2.9181658313
 H     -3.6512839037      2.1473447636     -2.0595384236
 H     -3.9756684072      2.5730262500      0.2253587408
 H     -3.3229204727      1.2067601923      2.1376397109
 H     -1.2014338114     -0.0221887274      2.1248321140
 H     -3.3997468384     -1.2680519809      2.0079879977
 H     -3.8159063879     -2.5806840814     -0.0825103395
 H     -3.3973325018     -1.9277373985     -2.2753086061
38
# ORCA AIMD Position Step 6, t=3.00 fs, E_Pot=-772.14541683 Hartree, Unit is Angstrom
 C      1.6510709703      0.6478285274     -0.7351526110
 C      2.4279146227      1.7639949993      0.0142496200
 C      3.3782314098      1.4733976114      0.9240240892
 C      3.7432737087      0.1139685576      1.4539983001
 C      2.6443470492     -0.9594021708      1.5892100830
 C      3.7531647178     -1.0896843471      0.5272263577
 C      3.4948398805     -1.0781343873     -0.9187209805
 C      2.5593243822     -0.3157986831     -1.5010929237
 C      1.2094343959     -0.7943313008      1.2715018262
 C      0.7152436330     -0.1301802581      0.2237052748
 C     -0.7451289531     -0.0026897402     -0.0570743470
 C     -1.1490298521      0.0268037755     -1.3393357233
 C     -2.5535998614      0.1381552022     -1.8344039318
 C     -3.3294731247      1.3703346734     -1.3115942981
 C     -3.4992340926      1.6118113027      0.0218337993
 C     -3.0400351227      0.7319160860      1.1095527418
 C     -1.7012838555     -0.0014449138      1.1059461446
 C     -3.0740660190     -0.7655115418      1.0064104358
 C     -3.4146211651     -1.5232607949     -0.1518437080
 C     -3.1928193656     -1.1838265171     -1.4609153785
 H      0.9235930638      1.0861138940     -1.4835628209
 H      2.1872161534      2.7510914466     -0.3141235199
 H      3.8975213046      2.3530296505      1.3529815490
 H      4.5026321577      0.1886892225      2.2590719981
 H      2.8422694492     -1.6366229587      2.4333520004
 H      4.5832206166     -1.6743677784      0.8431409224
 H      4.0723330052     -1.7436458076     -1.5393989646
 H      2.4097587962     -0.3758994860     -2.5543187167
 H      0.4855302652     -1.3108155477      1.9241881623
 H     -0.3682547396     -0.0592671428     -2.0694216732
 H     -2.6151965397      0.2393058144     -2.9130539237
 H     -3.6444373969      2.1465414937     -2.0585111443
 H     -3.9628693233      2.5759157178      0.2099853249
 H     -3.3190674985      1.2153846672      2.1307887200
 H     -1.2019252303     -0.0281357040      2.1215066778
 H     -3.3994962352     -1.2647407960      2.0023220583
 H     -3.8195261860     -2.5736381367     -0.0987943105
 H     -3.4044149524     -1.9270320050     -2.2714185883
38
# ORCA AIMD Position Step 7, t=3.50 fs, E_Pot=-772.14287764 Hartree, Unit is Angstrom
 C      1.6546232038      0.6463456071     -0.7341683731
 C      2.4281614847      1.7683904852      0.0216779143
 C      3.3827156808      1.4724468222      0.9239172622
 C      3.7487076325      0.1090833129      1.4567960301
 C      2.6422891699     -0.9584518800      1.5874220085
 C      3.7506864565     -1.0876705633      0.5257332722
 C      3.4966578857     -1.0813568828     -0.9206562904
 C      2.5636575572     -0.3196153722     -1.5008733868
 C      1.2056625146     -0.7944091498      1.2712162939
 C      0.7176826415     -0.1380549578      0.2217360747
 C     -0.7427939081     -0.0056072972     -0.0606227438
 C     -1.1470314627      0.0230972741     -1.3381093906
 C     -2.5488795787      0.1348488209     -1.8340607382
 C     -3.3329606603      1.3686966482     -1.3127987895
 C     -3.4978403541      1.6095781552      0.0224221264
 C     -3.0374824514      0.7294594991      1.1102893220
 C     -1.6989766491     -0.0041614013      1.1067594054
 C     -3.0743155090     -0.7648697726      1.0038089559
 C     -3.4150717798     -1.5197664773     -0.1505652913
 C     -3.1906000377     -1.1866017024     -1.4616778184
 H      0.9237008041      1.0710616636     -1.4775870534
 H      2.1798995574      2.7495714902     -0.3110032237
 H      3.8972430356      2.3498248277      1.3476329612
 H      4.5015034870      0.1912094515      2.2586215640
 H      2.8412306220     -1.6387874287      2.4203850494
 H      4.5866579852     -1.6582497139      0.8472105829
 H      4.0678508494     -1.7489445513     -1.5382792056
 H      2.4094572114     -0.3800175907     -2.5507782282
 H      0.4815859435     -1.3032567110      1.9194797157
 H     -0.3625175738     -0.0428498212     -2.0637395720
 H     -2.6210962980      0.2379928783     -2.9084699518
 H     -3.6369475755      2.1435373371     -2.0555804018
 H     -3.9501155396      2.5783784511      0.1960311149
 H     -3.3138307997      1.2208999400      2.1197225139
 H     -1.2041447354     -0.0342016491      2.1147800671
 H     -3.3975189777     -1.2593633235      1.9922652709
 H     -3.8222158008     -2.5635715899     -0.1134677026
 H     -3.4112332571     -1.9244675869     -2.2654213106
38
# ORCA AIMD Position Step 8, t=4.00 fs, E_Pot=-772.14108136 Hartree, Unit is Angstrom
 C      1.6580881780      0.6448165022     -0.7332017963
 C      2.4284002674      1.7723046427      0.0290750596
 C      3.3871538654      1.4715587363      0.9238371465
 C      3.7539451521      0.1045604323      1.4594762224
 C      2.6403515963     -0.9575921489      1.5856818863
 C      3.7481857112     -1.0855605420      0.5242960148
 C      3.4983675375     -1.0844441339     -0.9225398766
 C      2.5680155933     -0.3233724097     -1.5003799032
 C      1.2019343406     -0.7945486734      1.2709982897
 C      0.7201355093     -0.1457639723      0.2196177169
 C     -0.7405284401     -0.0086111851     -0.0639562529
 C     -1.1450270484      0.0194863632     -1.3368623065
 C     -2.5444024621      0.1315711871     -1.8336693887
 C     -3.3363251581      1.3669885331     -1.3137557041
 C     -3.4963330465      1.6072795229      0.0224774873
 C     -3.0350121787      0.7273425147      1.1112615712
 C     -1.6965430129     -0.0069351845      1.1075995005
 C     -3.0745509217     -0.7643110988      1.0018487321
 C     -3.4156165271     -1.5165722558     -0.1500058083
 C     -3.1884320582     -1.1894122860     -1.4621948021
 H      0.9267985136      1.0561666238     -1.4697369002
 H      2.1728841849      2.7498878966     -0.3075777611
 H      3.8968523364      2.3451673007      1.3423286135
 H      4.4993916293      0.1925177685      2.2568389344
 H      2.8395924816     -1.6403351950      2.4069075659
 H      4.5908504885     -1.6447417763      0.8512677878
 H      4.0640610586     -1.7549482261     -1.5373732601
 H      2.4089554642     -0.3843845549     -2.5491791886
 H      0.4787802340     -1.2954909596      1.9145544207
 H     -0.3564206090     -0.0265897347     -2.0594108039
 H     -2.6257142072      0.2363217610     -2.9047351983
 H     -3.6289881942      2.1386062263     -2.0510267614
 H     -3.9375575888      2.5806243080      0.1837717363
 H     -3.3072913609      1.2232698113      2.1048609822
 H     -1.2078757532     -0.0403905441      2.1051086995
 H     -3.3939315513     -1.2521335421      1.9782027011
 H     -3.8241320045     -2.5508486985     -0.1262206664
 H     -3.4178121722     -1.9203232555     -2.2576361668
38
# ORCA AIMD Position Step 9, t=4.50 fs, E_Pot=-772.13925019 Hartree, Unit is Angstrom
 C      1.6614957008      0.6432097257     -0.7322113969
 C      2.4286145122      1.7756979216      0.0364104702
 C      3.3915275650      1.4707004271      0.9237856076
 C      3.7589193273      0.1004492702      1.4619837289
 C      2.6385336727     -0.9568071137      1.5839623927
 C      3.7456887234     -1.0833711089      0.5229244227
 C      3.4999769986     -1.0873934987     -0.9243460048
 C      2.5723711862     -0.3270408117     -1.4996208886
 C      1.1983056580     -0.7947497046      1.2708515825
 C      0.7225862524     -0.1532648549      0.2173149542
 C     -0.7383300838     -0.0117122115     -0.0670178251
 C     -1.1430174161      0.0159872989     -1.3356345187
 C     -2.5402023161      0.1283262643     -1.8332198525
 C     -3.3395226608      1.3651521379     -1.3144243856
 C     -3.4947002337      1.6049044434      0.0219731138
 C     -3.0326136836      0.7255752814      1.1124070614
 C     -1.6940084362     -0.0097683786      1.1083898221
 C     -3.0747471680     -0.7638093466      1.0005091031
 C     -3.4162458526     -1.5136575633     -0.1502147331
 C     -3.1863061266     -1.1922057689     -1.4624211934
 H      0.9326413960      1.0418218326     -1.4604223460
 H      2.1662229961      2.7521245843     -0.3037938641
 H      3.8966717039      2.3394550373      1.3373496469
 H      4.4967227721      0.1925314386      2.2541231224
 H      2.8374263197     -1.6416092256      2.3934065049
 H      4.5957051322     -1.6340334073      0.8552287681
 H      4.0611203786     -1.7618186174     -1.5367903897
 H      2.4082441036     -0.3890131410     -2.5495837876
 H      0.4768267309     -1.2878129063      1.9097877894
 H     -0.3500008918     -0.0105739904     -2.0565268432
 H     -2.6289151099      0.2342911427     -2.9021059984
 H     -3.6207794233      2.1321553073     -2.0452555760
 H     -3.9253287558      2.5828322066      0.1734496078
 H     -3.2996066374      1.2226081625      2.0868999538
 H     -1.2127794087     -0.0467123547      2.0931976580
 H     -3.3889447451     -1.2434105906      1.9608182806
 H     -3.8255121489     -2.5360359128     -0.1367662798
 H     -3.4242172847     -1.9149987139     -2.2485197871
38
# ORCA AIMD Position Step 10, t=5.00 fs, E_Pot=-772.13650404 Hartree, Unit is Angstrom
 C      1.6648873930      0.6414897607     -0.7311452910
 C      2.4287857053      1.7785482361      0.0436507465
 C      3.3958162026      1.4698335945      0.9237625573
 C      3.7635603168      0.0967922598      1.4642589435
 C      2.6368321318     -0.9560766840      1.5822326088
 C      3.7432331358     -1.0811280170      0.5216321037
 C      3.5015018113     -1.0902104024     -0.9260530120
 C      2.5766933210     -0.3305922356     -1.4986246013
 C      1.1948352527     -0.7950083331      1.2707748785
 C      0.7250189033     -0.1605182219      0.2147964387
 C     -0.7361946658     -0.0149208969     -0.0697545464
 C     -1.1409959576      0.0126160783     -1.3344725308
 C     -2.5363098037      0.1251168835     -1.8327077011
 C     -3.3425074543      1.3631211136     -1.3147630882
 C     -3.4929326683      1.6024461249      0.0208942833
 C     -3.0302683332      0.7241511516      1.1136379242
 C     -1.6914100838     -0.0126623513      1.1090360235
 C     -3.0748713318     -0.7633268156      0.9997340717
 C     -3.4169425630     -1.5109826288     -0.1512236791
 C     -3.1842090371     -1.1949214004     -1.4623109342
 H      0.9408216313      1.0284732397     -1.4501956520
 H      2.1600038938      2.7561823407     -0.2995505138
 H      3.8970523785      2.3331571639      1.3329972695
 H      4.4939888653      0.1911991750      2.2509498647
 H      2.8348243891     -1.6429923967      2.3804045411
 H      4.6009814517     -1.6261934100      0.8589591410
 H      4.0591165572     -1.7696403032     -1.5365748034
 H      2.4073443805     -0.3939012581     -2.5518417780
 H      0.4753888146     -1.2805363876      1.9055874345
 H     -0.3433885811      0.0051182463     -2.0550769190
 H     -2.6305835881      0.2318988193     -2.9007506944
 H     -3.6125742589      2.1247082305     -2.0387806203
 H     -3.9135320643      2.5851312263      0.1652620723
 H     -3.2910146899      1.2192027541      2.0668272427
 H     -1.2184001865     -0.0531875654      2.0799878482
 H     -3.3828724884     -1.2337110560      1.9411178499
 H     -3.8266740627     -2.5198868260     -0.1448560759
 H     -3.4305570650     -1.9089945469     -2.2386435483
38
# ORCA AIMD Position Step 11, t=5.50 fs, E_Pot=-772.13220117 Hartree, Unit is Angstrom
 C      1.6683171742      0.6396174557     -0.7299420938
 C      2.4288936899      1.7808508584      0.0507639342
 C      3.4000009862      1.4689174696      0.9237672965
 C      3.7678010922      0.0936228643      1.4662421815
 C      2.6352411794     -0.9553791167      1.5804608382
 C      3.7408643438     -1.0788628983      0.5204347628
 C      3.5029658078     -1.0929103986     -0.9276451283
 C      2.5809499705     -0.3340010511     -1.4974363296
 C      1.1915800038     -0.7953184566      1.2707633313
 C      0.7274191794     -0.1674918772      0.2120343556
 C     -0.7341155298     -0.0182488764     -0.0721204713
 C     -1.1389484918      0.0093871874     -1.3334266446
 C     -2.5327502455      0.1219433654     -1.8321349382
 C     -3.3452349874      1.3608228313     -1.3147319345
 C     -3.4910232654      1.5999020814      0.0192384618
 C     -3.0279479453      0.7230442170      1.1148403579
 C     -1.6887941433     -0.0156190523      1.1094296961
 C     -3.0748822444     -0.7628132129      0.9994301955
 C     -3.4176829601     -1.5084894511     -0.1530455911
 C     -3.1821233309     -1.1974947454     -1.4618204051
 H      0.9507864109      1.0166002851     -1.4397292957
 H      2.1543441086      2.7617973649     -0.2947020967
 H      3.8983505653      2.3267715117      1.3295708938
 H      4.4917103552      0.1884977775      2.2478327835
 H      2.8318886579     -1.6448733807      2.3684112801
 H      4.6063208442     -1.6211847845      0.8622873634
 H      4.0580603249     -1.7784133034     -1.5366975986
 H      2.4063064467     -0.3990346576     -2.5556146416
 H      0.4741112807     -1.2739676476      1.9023611100
 H     -0.3367914852      0.0204177776     -2.0549576693
 H     -2.6306246377      0.2291387709     -2.9007347958
 H     -3.6046396391      2.1168706314     -2.0321914409
 H     -3.9022298982      2.5875858673      0.1593539790
 H     -3.2818336716      1.2135303799      2.0459247898
 H     -1.2241865970     -0.0598515032      2.0666134946
 H     -3.3761342049     -1.2237126588      1.9204330094
 H     -3.8280075096     -2.5033034994     -0.1502901516
 H     -3.4369799295     -1.9028768963     -2.2286539046
38
# ORCA AIMD Position Step 12, t=6.00 fs, E_Pot=-772.12632290 Hartree, Unit is Angstrom
 C      1.6718503809      0.6375505997     -0.7285330320
 C      2.4289180348      1.7826153984      0.0577239453
 C      3.4040687487      1.4679125572      0.9238004821
 C      3.7715824953      0.0909651180      1.4678779764
 C      2.6337533264     -0.9546942494      1.5786176732
 C      3.7386313159     -1.0766100043      0.5193486969
 C      3.5044007794     -1.0955196633     -0.9291129231
 C      2.5851108470     -0.3372460176     -1.4961135955
 C      1.1885903690     -0.7956740104      1.2708108186
 C      0.7297755102     -0.1741637825      0.2090039093
 C     -0.7320832005     -0.0217103251     -0.0740783375
 C     -1.1368542580      0.0063127408     -1.3325480684
 C     -2.5295424084      0.1188026882     -1.8315100007
 C     -3.3476639919      1.3581809826     -1.3142966956
 C     -3.4889662610      1.5972739099      0.0170139129
 C     -3.0256143041      0.7222093608      1.1158760637
 C     -1.6862108059     -0.0186425352      1.1094545035
 C     -3.0747309198     -0.7622066341      0.9994685565
 C     -3.4184390375     -1.5061058491     -0.1556758098
 C     -3.1800275871     -1.1998625829     -1.4609125090
 H      0.9618750723      1.0066948097     -1.4297796416
 H      2.1493800251      2.7685820947     -0.2890690404
 H      3.9008986019      2.3207703726      1.3273432881
 H      4.4903896627      0.1844231675      2.2452730898
 H      2.8287166309     -1.6476056266      2.3578720919
 H      4.6112859692     -1.6188903369      0.8650211992
 H      4.0578893436     -1.7880579687     -1.5370603500
 H      2.4052036080     -0.4043904190     -2.5604229308
 H      0.4726600303     -1.2683769982      1.9004801910
 H     -0.3304702055      0.0352650417     -2.0559943328
 H     -2.6289611971      0.2259979355     -2.9020147112
 H     -3.5972344996      2.1092763693     -2.0261028693
 H     -3.8914401832      2.5901885396      0.1558173704
 H     -3.2724546346      1.2062555960      2.0257488665
 H     -1.2295304036     -0.0667562458      2.0543225865
 H     -3.3692450995     -1.2142406980      1.9003888415
 H     -3.8299548149     -2.4872738177     -0.1529181412
 H     -3.4436637777     -1.8972292065     -2.2192181917
38
# ORCA AIMD Position Step 13, t=6.50 fs, E_Pot=-772.11974203 Hartree, Unit is Angstrom
 C      1.6755599814      0.6352455019     -0.7268457371
 C      2.4288390592      1.7838609763      0.0645135027
 C      3.4080150683      1.4667847406      0.9238660143
 C      3.7748576521      0.0888348008      1.4691194945
 C      2.6323603808     -0.9540071378      1.5766794958
 C      3.7365825739     -1.0744034398      0.5183889324
 C      3.5058452840     -1.0980741424     -0.9304529171
 C      2.5891497183     -0.3403110631     -1.4947200927
 C      1.1859064533     -0.7960710704      1.2709123702
 C      0.7320797465     -0.1805232189      0.2056825890