38
# ORCA AIMD Force Step 0, t=0.00 fs, E_Pot=-772.17431175 Hartree, Unit is Hartree/Angstrom
 C      0.0000000000      0.0000000000      0.0000000000
 C      0.0000000000      0.0000000000      0.0000000000
 C      0.0000000000      0.0000000000      0.0000000000
 C      0.0000000000      0.0000000000      0.0000000000
 C      0.0000000000      0.0000000000      0.0000000000
 C      0.0000000000      0.0000000000      0.0000000000
 C      0.0000000000      0.0000000000      0.0000000000
 C      0.0000000000      0.0000000000      0.0000000000
 C      0.0000000000      0.0000000000      0.0000000000
 C      0.0000000000      0.0000000000      0.0000000000
 C      0.0000000000      0.0000000000      0.0000000000
 C      0.0000000000      0.0000000000      0.0000000000
 C      0.0000000000      0.0000000000      0.0000000000
 C      0.0000000000      0.0000000000      0.0000000000
 C      0.0000000000      0.0000000000      0.0000000000
 C      0.0000000000      0.0000000000      0.0000000000
 C      0.0000000000      0.0000000000      0.0000000000
 C      0.0000000000      0.0000000000      0.0000000000
 C      0.0000000000      0.0000000000      0.0000000000
 C      0.0000000000      0.0000000000      0.0000000000
 H      0.0000000000      0.0000000000      0.0000000000
 H      0.0000000000      0.0000000000      0.0000000000
 H      0.0000000000      0.0000000000      0.0000000000
 H      0.0000000000      0.0000000000      0.0000000000
 H      0.0000000000      0.0000000000      0.0000000000
 H      0.0000000000      0.0000000000      0.0000000000
 H      0.0000000000      0.0000000000      0.0000000000
 H      0.0000000000      0.0000000000      0.0000000000
 H      0.0000000000      0.0000000000      0.0000000000
 H      0.0000000000      0.0000000000      0.0000000000
 H      0.0000000000      0.0000000000      0.0000000000
 H      0.0000000000      0.0000000000      0.0000000000
 H      0.0000000000      0.0000000000      0.0000000000
 H      0.0000000000      0.0000000000      0.0000000000
 H      0.0000000000      0.0000000000      0.0000000000
 H      0.0000000000      0.0000000000      0.0000000000
 H      0.0000000000      0.0000000000      0.0000000000
 H      0.0000000000      0.0000000000      0.0000000000
38
# ORCA AIMD Force Step 1, t=0.50 fs, E_Pot=-772.17115711 Hartree, Unit is Hartree/Angstrom
 C     -0.0124957126      0.0057286247     -0.0094349644
 C      0.0141660252     -0.0119491909      0.0115509132
 C     -0.0126589313      0.0147695748     -0.0106751786
 C     -0.0003172299      0.0047142009      0.0039632390
 C      0.0140137292     -0.0078173326      0.0089255328
 C      0.0013004971      0.0028443729      0.0104957712
 C     -0.0169337738      0.0141708977     -0.0131702917
 C      0.0164853064     -0.0124356466      0.0120637610
 C     -0.0187699754      0.0068900109     -0.0125797662
 C      0.0136232921     -0.0068970054      0.0164726855
 C     -0.0127877784     -0.0004938154     -0.0199366413
 C      0.0142210946      0.0025347881      0.0215396324
 C     -0.0069148105     -0.0002582663     -0.0036437969
 C     -0.0043429809      0.0123619059      0.0201657686
 C      0.0031695741      0.0014626117     -0.0359923635
 C     -0.0046210116      0.0108113074      0.0244592849
 C      0.0053045615     -0.0032881835      0.0171735803
 C      0.0022292126     -0.0060969745      0.0386244559
 C     -0.0016399443     -0.0158891094     -0.0396779509
 C     -0.0089474446     -0.0173837707      0.0178284811
 H      0.0224827864     -0.0096746283      0.0209748259
 H      0.0051411449     -0.0144714662      0.0068022344
 H     -0.0124257289     -0.0227470381     -0.0096879409
 H     -0.0211327879     -0.0040022278     -0.0215481736
 H     -0.0062917270      0.0163969201     -0.0213151322
 H     -0.0129683016      0.0049601787     -0.0043114792
 H     -0.0100156327      0.0108266759      0.0115203612
 H      0.0022084767      0.0004076670      0.0153449762
 H      0.0170017482      0.0127656472     -0.0147407022
 H     -0.0104580565      0.0087103558      0.0084063141
 H      0.0028053817     -0.0038755884      0.0165444227
 H      0.0100413007     -0.0242755647      0.0214444498
 H      0.0097165968     -0.0189179494     -0.0025556199
 H      0.0115632320     -0.0185638739     -0.0388107914
 H     -0.0175238748     -0.0019434684     -0.0347258483
 H      0.0169258327      0.0189695446     -0.0373698918
 H      0.0099053789      0.0305341223      0.0016259285
 H     -0.0014549665      0.0215092409      0.0243532027
38
# ORCA AIMD Force Step 2, t=1.00 fs, E_Pot=-772.16601502 Hartree, Unit is Hartree/Angstrom
 C     -0.0187418311      0.0071346113     -0.0135777300
 C      0.0110278596     -0.0276041966      0.0060194556
 C     -0.0110333283      0.0190811668     -0.0061816349
 C     -0.0038382627      0.0176280758      0.0027774741
 C      0.0175190662     -0.0131930524      0.0141355200
 C      0.0004018596      0.0066156195      0.0111553068
 C     -0.0184526700      0.0169349013     -0.0106056542
 C      0.0140281466     -0.0080067772      0.0200681845
 C     -0.0171337754      0.0016817235     -0.0060034272
 C      0.0116726236      0.0015993531      0.0102940975
 C     -0.0143221464     -0.0020161642     -0.0094571799
 C      0.0115532731      0.0065430974      0.0199277726
 C     -0.0154905521      0.0025250755     -0.0033140916
 C     -0.0010969756      0.0137786468      0.0223749083
 C      0.0054016087      0.0014434684     -0.0499970825
 C     -0.0103902441      0.0248143210      0.0383844996
 C      0.0124136744     -0.0036758241      0.0233849321
 C     -0.0011149601     -0.0131026650      0.0648014730
 C     -0.0066294577     -0.0306331526     -0.0584662429
 C     -0.0111558132     -0.0200506392      0.0195622927
 H      0.0314913113     -0.0103846909      0.0274981527
 H      0.0055694310     -0.0064582641      0.0066125791
 H     -0.0133198370     -0.0273587297     -0.0099639255
 H     -0.0245415616     -0.0071340929     -0.0259935273
 H     -0.0079183047      0.0186459491     -0.0230912243
 H     -0.0079934100     -0.0046096886     -0.0034711983
 H     -0.0070334120      0.0082002731      0.0098991856
 H      0.0014142864     -0.0002515855      0.0068811028
 H      0.0207880993      0.0133892556     -0.0158341391
 H     -0.0075732134      0.0059007347      0.0025720116
 H      0.0063511381     -0.0044350462      0.0126370261
 H      0.0117455143     -0.0303052023      0.0270007926
 H      0.0077783430     -0.0180246804      0.0030243762
 H      0.0157637590     -0.0283026775     -0.0525108115
 H     -0.0227936715     -0.0017194137     -0.0452665100
 H      0.0215811410      0.0257095050     -0.0518322462
 H      0.0129775731      0.0391994276      0.0063843073
 H      0.0007174671      0.0267974487      0.0302956185
38
# ORCA AIMD Force Step 3, t=1.50 fs, E_Pot=-772.16000752 Hartree, Unit is Hartree/Angstrom
 C     -0.0232597400      0.0070134382     -0.0157861081
 C      0.0082115899     -0.0435324213      0.0009232632
 C     -0.0103125495      0.0215773357     -0.0024808948
 C     -0.0090499026      0.0302896425      0.0000309578
 C      0.0204251097     -0.0171610093      0.0174016583
 C     -0.0010643415      0.0102645134      0.0113731388
 C     -0.0201381231      0.0200781520     -0.0070026637
 C      0.0113761082     -0.0032528420      0.0284720691
 C     -0.0139208001     -0.0026758755     -0.0002457433
 C      0.0093849498      0.0102142337      0.0037302229
 C     -0.0155078338     -0.0036025949      0.0013530262
 C      0.0082631425      0.0104449659      0.0180758818
 C     -0.0237453447      0.0049560238     -0.0019218389
 C      0.0031455463      0.0131172955      0.0255728554
 C      0.0078954520      0.0005482147     -0.0628406856
 C     -0.0147843798      0.0370812390      0.0474978721
 C      0.0177267844     -0.0040828729      0.0261320755
 C     -0.0029255068     -0.0177184782      0.0860022160
 C     -0.0108118350     -0.0428699897     -0.0766005707
 C     -0.0128496729     -0.0205834254      0.0225682483
 H      0.0386269686     -0.0097185525      0.0319143459
 H      0.0056711938      0.0021659582      0.0060525091
 H     -0.0130928735     -0.0300769831     -0.0093377549
 H     -0.0261475866     -0.0101103220     -0.0285961859
 H     -0.0091103232      0.0195696376     -0.0230524953
 H     -0.0025196745     -0.0142135137     -0.0024148010
 H     -0.0034781047      0.0048595098      0.0075874882
 H      0.0004459903     -0.0009546978     -0.0023040729
 H      0.0231828659      0.0130170756     -0.0156755403
 H     -0.0043056507      0.0032277538     -0.0034648458
 H      0.0097213656     -0.0048446984      0.0078367977
 H      0.0124380863     -0.0343080536      0.0305738663
 H      0.0054458393     -0.0161381088      0.0086086388
 H      0.0186705875     -0.0362147912     -0.0614661368
 H     -0.0263181162     -0.0014897584     -0.0522143524
 H      0.0247572142      0.0301255220     -0.0616855865
 H      0.0150679509      0.0451309146      0.0114728702
 H      0.0025232616      0.0301740790      0.0340488474
38
# ORCA AIMD Force Step 4, t=2.00 fs, E_Pot=-772.15414175 Hartree, Unit is Hartree/Angstrom
 C     -0.0260717902      0.0055815989     -0.0160603624
 C      0.0056838364     -0.0593615184     -0.0040975482
 C     -0.0105126124      0.0221622436      0.0006512982
 C     -0.0160750858      0.0427391109     -0.0043479125
 C      0.0227730365     -0.0196629935      0.0187215613
 C     -0.0024740324      0.0132339383      0.0113805875
 C     -0.0216633885      0.0232862756     -0.0024586457
 C      0.0083237248      0.0018703634      0.0366579477
 C     -0.0088778935     -0.0063114963      0.0046799514
 C      0.0068027498      0.0191646349     -0.0032238857
 C     -0.0164259000     -0.0052745691      0.0127419659
 C      0.0047753403      0.0142717713      0.0155568001
 C     -0.0319252279      0.0071202912      0.0002635307
 C      0.0084763458      0.0104461628      0.0298429065
 C      0.0105728095     -0.0011084016     -0.0743479900
 C     -0.0178732053      0.0475743636      0.0521731861
 C      0.0210054250     -0.0045033357      0.0254480164
 C     -0.0032499463     -0.0201298310      0.1024778169
 C     -0.0139773305     -0.0524143040     -0.0938360472
 C     -0.0140463772     -0.0189947501      0.0269987915
 H      0.0438384762     -0.0077711171      0.0342269598
 H      0.0055753116      0.0108262843      0.0052634964
 H     -0.0117853513     -0.0308895093     -0.0078346126
 H     -0.0259581965     -0.0128804039     -0.0293442262
 H     -0.0098444201      0.0191617721     -0.0212074374
 H      0.0028203362     -0.0233643882     -0.0013811195
 H      0.0004369954      0.0010810299      0.0047982433
 H     -0.0005993726     -0.0016542368     -0.0116429570
 H      0.0240912991      0.0116144565     -0.0142253426
 H     -0.0009535277      0.0006752914     -0.0094274409
 H      0.0128886250     -0.0051169781      0.0023635255
 H      0.0121200831     -0.0362164409      0.0320886567
 H      0.0028161006     -0.0135300690      0.0140599442
 H      0.0204130530     -0.0423374756     -0.0661499630
 H     -0.0281024316     -0.0012556498     -0.0556179100
 H      0.0265816203      0.0324338179     -0.0672956058
 H      0.0161491509      0.0482251428      0.0167359777
 H      0.0039207139      0.0315600777      0.0355133744
38
# ORCA AIMD Force Step 5, t=2.50 fs, E_Pot=-772.14915646 Hartree, Unit is Hartree/Angstrom
 C     -0.0268143101      0.0028425853     -0.0143205957
 C      0.0032317958     -0.0735838706     -0.0088205509
 C     -0.0116872965      0.0209309296      0.0027261222
 C     -0.0245168106      0.0542780392     -0.0102489813
 C      0.0243722887     -0.0206231747      0.0181552694
 C     -0.0031214712      0.0150946487      0.0114413414
 C     -0.0229169528      0.0263768078      0.0025197183
 C      0.0050366223      0.0070543890      0.0433800679
 C     -0.0024787257     -0.0087701177      0.0084554627
 C      0.0040417025      0.0277180251     -0.0101036981
 C     -0.0169181642     -0.0069546493      0.0237180022
 C      0.0015175813      0.0177594060      0.0121775886
 C     -0.0392887128      0.0087915076      0.0029457467
 C      0.0144655724      0.0056443725      0.0348456630
 C      0.0132471909     -0.0032335707     -0.0841110103
 C     -0.0197070637      0.0559813325      0.0526575574
 C      0.0224029403     -0.0048749845      0.0214670572
 C     -0.0023944829     -0.0206585602      0.1139111539
 C     -0.0160546806     -0.0586222582     -0.1091463623
 C     -0.0145060578     -0.0151915294      0.0323335107
 H      0.0467192528     -0.0046467129      0.0342415670
 H      0.0054134223      0.0184776236      0.0045524361
 H     -0.0093578598     -0.0296624488     -0.0054633344
 H     -0.0239279761     -0.0152890697     -0.0281330077
 H     -0.0100539169      0.0173008477     -0.0176020345
 H      0.0072890198     -0.0313399054     -0.0005925255
 H      0.0043850639     -0.0029105027      0.0018273890
 H     -0.0016302833     -0.0022950591     -0.0198725655
 H      0.0234988519      0.0092708204     -0.0115001948
 H      0.0018409141     -0.0014431177     -0.0145726751
 H      0.0157289813     -0.0052523131     -0.0032825979
 H      0.0109260860     -0.0359504296      0.0315547270
 H      0.0001294608     -0.0103106646      0.0191883363
 H      0.0210262635     -0.0464984141     -0.0667038836
 H     -0.0281101912     -0.0010860488     -0.0553605709
 H      0.0270956769      0.0327339032     -0.0687832254
 H      0.0160112451      0.0481970462      0.0219341234
 H      0.0047626954      0.0309466180      0.0347303753
38
# ORCA AIMD Force Step 6, t=3.00 fs, E_Pot=-772.14541683 Hartree, Unit is Hartree/Angstrom
 C     -0.0256524194     -0.0009438814     -0.0106432758
 C      0.0007605019     -0.0860102929     -0.0138737255
 C     -0.0137506525      0.0178665639      0.0042283059
 C     -0.0345161357      0.0651385886     -0.0177031462
 C      0.0253479447     -0.0201114905      0.0158367137
 C     -0.0023153528      0.0153618961      0.0118707054
 C     -0.0234636389      0.0289036566      0.0078098185
 C      0.0011286890      0.0124388576      0.0479636348
 C      0.0055621348     -0.0104009640      0.0111961780
 C      0.0010893356      0.0363213533     -0.0169791148
 C     -0.0171064217     -0.0086697173      0.0348601346
 C     -0.0010443181      0.0210849122      0.0075451543
 C     -0.0463876960      0.0102036346      0.0057011905
 C      0.0213223871     -0.0011064806      0.0407411128
 C      0.0158208023     -0.0055933716     -0.0921064784
 C     -0.0203193034      0.0623342272      0.0491348268
 C      0.0216542370     -0.0052050591      0.0141071787
 C     -0.0002797078     -0.0193624405      0.1204198073
 C     -0.0168555147     -0.0615987171     -0.1224930827
 C     -0.0143358119     -0.0092899119      0.0388203210
 H      0.0473980092     -0.0004501687      0.0320940915
 H      0.0054063711      0.0245524451      0.0041066307
 H     -0.0059524907     -0.0265617063     -0.0023162738
 H     -0.0201824914     -0.0173270249     -0.0250828859
 H     -0.0097679534      0.0141333342     -0.0123881018
 H      0.0102003028     -0.0378014652     -0.0003419508
 H      0.0081091246     -0.0067066371     -0.0010332956
 H     -0.0024776499     -0.0028177912     -0.0263753809
 H      0.0214287610      0.0060143072     -0.0075733760
 H      0.0038389640     -0.0033330352     -0.0187621118
 H      0.0182779394     -0.0052931593     -0.0088017364
 H      0.0088529886     -0.0335265587      0.0289482253
 H     -0.0025251780     -0.0069365897      0.0238946000
 H      0.0205991581     -0.0487605759     -0.0634505189
 H     -0.0263442371     -0.0009669209     -0.0515123622
 H      0.0263568332      0.0311100321     -0.0663048414
 H      0.0147366182      0.0451623833      0.0269502092
 H      0.0050517559      0.0283150543      0.0316534281
38
# ORCA AIMD Force Step 7, t=3.50 fs, E_Pot=-772.14287764 Hartree, Unit is Hartree/Angstrom
 C     -0.0224027548     -0.0056891109     -0.0050208206
 C     -0.0019237924     -0.0956985954     -0.0192957336
 C     -0.0166157454      0.0131604131      0.0050593509
 C     -0.0457263117      0.0749367078     -0.0265317649
 C      0.0256787810     -0.0182313978      0.0120103337
 C      0.0004517011      0.0138287307      0.0129032543
 C     -0.0230626507      0.0305347538      0.0129670449
 C     -0.0034210282      0.0178611938      0.0494755554
 C      0.0148759676     -0.0110864668      0.0128187035
 C     -0.0019500345      0.0446098561     -0.0235458212
 C     -0.0169508006     -0.0103673919      0.0456333423
 C     -0.0025683245      0.0242025629      0.0015290174
 C     -0.0529314574      0.0112983980      0.0081384166
 C      0.0287983885     -0.0097571419      0.0472861696
 C      0.0181215593     -0.0078271541     -0.0981176606
 C     -0.0196844139      0.0663379980      0.0415579432
 C      0.0187877259     -0.0054496369      0.0033941724
 C      0.0030206607     -0.0163064846      0.1215266443
 C     -0.0163125085     -0.0610482961     -0.1332429727
 C     -0.0134196278     -0.0013550611      0.0460892859
 H      0.0456704507      0.0047187955      0.0277209864
 H      0.0057289283      0.0282937708      0.0041826849
 H     -0.0016751127     -0.0217041691      0.0014992717
 H     -0.0148494663     -0.0189060637     -0.0202867528
 H     -0.0089976662      0.0097564624     -0.0058050574
 H      0.0110094411     -0.0423639730     -0.0008167445
 H      0.0112693219     -0.0099558116     -0.0034394508
 H     -0.0030120819     -0.0031687212     -0.0302105044
 H      0.0180052379      0.0019981875     -0.0025887199
 H      0.0046146762     -0.0049295970     -0.0215536833
 H      0.0204949041     -0.0052709502     -0.0136817297
 H      0.0060220551     -0.0289816447      0.0243469323
 H     -0.0049554689     -0.0036929678      0.0280450915
 H      0.0190999434     -0.0489109933     -0.0562896017
 H     -0.0227544330     -0.0009449902     -0.0439607961
 H      0.0242991979      0.0274757445     -0.0596607768
 H      0.0122317995      0.0390397264      0.0316029376
 H      0.0047074010      0.0237465099      0.0263956485
38
# ORCA AIMD Force Step 8, t=4.00 fs, E_Pot=-772.14108136 Hartree, Unit is Hartree/Angstrom
 C     -0.0169998407     -0.0112532156      0.0025121426
 C     -0.0049177910     -0.1022128342     -0.0252025931
 C     -0.0201174531      0.0070972379      0.0053535318
 C     -0.0578279368      0.0834897842     -0.0364963001
 C      0.0254394687     -0.0152210488      0.0070402917
 C      0.0054048389      0.0104733625      0.0146672958
 C     -0.0214666926      0.0309296432      0.0176566850
 C     -0.0086716973      0.0232281020      0.0474072550
 C      0.0251499067     -0.0109338420      0.0133908750
 C     -0.0050172166      0.0524423315     -0.0295711833
 C     -0.0164940823     -0.0120130111      0.0557978796
 C     -0.0028339181      0.0271777536     -0.0058670040
 C     -0.0588731127      0.0121423034      0.0098538663
 C      0.0367521320     -0.0201283541      0.0542780614
 C      0.0200022820     -0.0095776217     -0.1020018526
 C     -0.0177301080      0.0676671427      0.0297024134
 C      0.0137816820     -0.0055792713     -0.0106469535
 C      0.0075745041     -0.0114169915      0.1166771618
 C     -0.0143687517     -0.0569170440     -0.1409416539
 C     -0.0117472993      0.0084188374      0.0538771025
 H      0.0414495840      0.0107663902      0.0211292262
 H      0.0065225899      0.0292876438      0.0049334213
 H      0.0032712658     -0.0153762286      0.0058114752
 H     -0.0081751801     -0.0199866946     -0.0139746040
 H     -0.0078075072      0.0044272989      0.0017749818
 H      0.0094518780     -0.0449114086     -0.0021128742
 H      0.0135729909     -0.0122904222     -0.0050794199
 H     -0.0031229518     -0.0033051765     -0.0308646227
 H      0.0134643825     -0.0025701429      0.0032043390
 H      0.0039650394     -0.0063090572     -0.0227593456
 H      0.0223804151     -0.0052276533     -0.0174821682
 H      0.0025491586     -0.0224381825      0.0178800542
 H     -0.0070177271     -0.0009357252      0.0315392320
 H      0.0164614673     -0.0466905634     -0.0449991854
 H     -0.0173242901     -0.0010501776     -0.0326852005
 H      0.0208111707      0.0216670407     -0.0485228533
 H      0.0084934099      0.0299134486      0.0357439806
 H      0.0036976064      0.0173745018      0.0191050498
38
# ORCA AIMD Force Step 9, t=4.50 fs, E_Pot=-772.13925019 Hartree, Unit is Hartree/Angstrom
 C     -0.0095053689     -0.0174788820      0.0118546765
 C     -0.0082526523     -0.1054254331     -0.0315755473
 C     -0.0239849127      0.0001170521      0.0052855997
 C     -0.0703151122      0.0906554744     -0.0471556450
 C      0.0247176178     -0.0114652222      0.0014695447
 C      0.0123895187      0.0055108025      0.0170953892
 C     -0.0185362010      0.0298435772      0.0215527480
 C     -0.0145568711      0.0284231802      0.0417123986
 C      0.0358631274     -0.0100929252      0.0130270231
 C     -0.0080571495      0.0596333335     -0.0347944857
 C     -0.0157293140     -0.0135677443      0.0650800906
 C     -0.0017539802      0.0300717135     -0.0143634646
 C     -0.0641595031      0.0127771344      0.0105232391
 C      0.0449325617     -0.0318561697      0.0613619193
 C      0.0213533152     -0.0105340340     -0.1035809712
 C     -0.0143357559      0.0658862783      0.0133126116
 C      0.0066813260     -0.0055552968     -0.0277687631
 C      0.0135017723     -0.0044739559      0.1053709810
 C     -0.0110419024     -0.0493061354     -0.1452119889
 C     -0.0093823916      0.0196006362      0.0617164692
 H      0.0347510166      0.0175576219      0.0124138175
 H      0.0078397910      0.0274528341      0.0064010731
 H      0.0086037107     -0.0080135878      0.0103837258
 H     -0.0005582696     -0.0205620330     -0.0065446538
 H     -0.0063031979     -0.0014593302      0.0098265112
 H      0.0056493217     -0.0455627548     -0.0041688334
 H      0.0147907216     -0.0134106638     -0.0057055347
 H     -0.0027612781     -0.0032093605     -0.0282454645
 H      0.0081945362     -0.0073862298      0.0094277771
 H      0.0018946527     -0.0075545374     -0.0223761031
 H      0.0239307351     -0.0051939511     -0.0198883163
 H     -0.0013942629     -0.0141644056      0.0098089308
 H     -0.0085961792      0.0010317244      0.0342909084
 H      0.0126046144     -0.0418043452     -0.0293268469
 H     -0.0101544197     -0.0013119261     -0.0178961702
 H      0.0157672497      0.0134947321     -0.0325421186
 H      0.0035587387      0.0179961115      0.0392342291
 H      0.0020429081      0.0095129726      0.0101199830
38
# ORCA AIMD Force Step 10, t=5.00 fs, E_Pot=-772.13650404 Hartree, Unit is Hartree/Angstrom
 C     -0.0001654966     -0.0241190862      0.0227125718
 C     -0.0118585473     -0.1056121297     -0.0382699090
 C     -0.0278675823     -0.0071549910      0.0051043629
 C     -0.0825255889      0.0963690703     -0.0578831567
 C      0.0236805660     -0.0075071814     -0.0040204635
 C      0.0209290810     -0.0006850044      0.0199842465
 C     -0.0142550719      0.0271636679      0.0244747864
 C     -0.0209567182      0.0333764080      0.0328460978
 C      0.0464065968     -0.0088281334      0.0120153185
 C     -0.0109795658      0.0660661352     -0.0390467669
 C     -0.0147075300     -0.0149921282      0.0731894101
 C      0.0005028821      0.0329487280     -0.0235549212
 C     -0.0687222235      0.0132391416      0.0099564393
 C      0.0530511933     -0.0443769489      0.0680016050
 C      0.0221086255     -0.0104542365     -0.1027229450
 C     -0.0094483419      0.0606910351     -0.0077474992
 C     -0.0022358214     -0.0053587243     -0.0472979242
 C      0.0208651117      0.0046438152      0.0873451175
 C     -0.0064909761     -0.0386655770     -0.1458033466
 C     -0.0064583089      0.0315693283      0.0689570790
 H      0.0258125014      0.0248755487      0.0018639682
 H      0.0096322594      0.0230659357      0.0084939296
 H      0.0139429146     -0.0002345998      0.0149035260
 H      0.0074335708     -0.0206717833      0.0014149046
 H     -0.0046400726     -0.0073584000      0.0176849213
 H      0.0000367156     -0.0446094758     -0.0067954908
 H      0.0148208118     -0.0131526312     -0.0052046920
 H     -0.0019524150     -0.0028870768     -0.0227345872
 H      0.0027013781     -0.0120848131      0.0156101981
 H     -0.0013932439     -0.0087514160     -0.0205730060
 H      0.0251425962     -0.0051948750     -0.0206897060
 H     -0.0055716048     -0.0046555073      0.0006073036
 H     -0.0096221941      0.0019725859      0.0362429291
 H      0.0074861979     -0.0340170446     -0.0091453905
 H     -0.0015422498     -0.0017448737     -0.0001932144
 H      0.0091036417      0.0028604675     -0.0115724191
 H     -0.0024151915      0.0037952311      0.0419712640
 H     -0.0001555586      0.0006786604     -0.0000023625
38
# ORCA AIMD Force Step 11, t=5.50 fs, E_Pot=-772.13220117 Hartree, Unit is Hartree/Angstrom
 C      0.0105328366     -0.0308527000      0.0345223819
 C     -0.0154646972     -0.1033660060     -0.0449931605
 C     -0.0313610272     -0.0139316240      0.0051596934
 C     -0.0937301183      0.1006504296     -0.0679408174
 C      0.0225772245     -0.0039903099     -0.0087071047
 C      0.0303903442     -0.0076828676      0.0231145363
 C     -0.0088055928      0.0230025519      0.0264379083
 C     -0.0276716997      0.0380029625      0.0215785494
 C      0.0561320555     -0.0075109132      0.0107594077
 C     -0.0137750366      0.0716650767     -0.0421256057
 C     -0.0135209691     -0.0162397277      0.0798823405
 C      0.0035658133      0.0358595687     -0.0329356904
 C     -0.0725185831      0.0136204765      0.0081037333
 C      0.0608432386     -0.0569144486      0.0733813060
 C      0.0222285899     -0.0091601496     -0.0993940447
 C     -0.0031845858      0.0521281431     -0.0332073118
 C     -0.0122330762     -0.0050120770     -0.0680029925
 C      0.0295184897      0.0156634421      0.0629459699
 C     -0.0010655311     -0.0259295618     -0.1425454039
 C     -0.0032034118      0.0435617378      0.0746882630
 H      0.0151297955      0.0324177709     -0.0100002775
 H      0.0117586259      0.0167089069      0.0109894677
 H      0.0188049483      0.0071580184      0.0189815343
 H      0.0150733571     -0.0204030641      0.0091340871
 H     -0.0030109594     -0.0126062177      0.0246096320
 H     -0.0067900378     -0.0424205712     -0.0097412608
 H      0.0137190003     -0.0115231183     -0.0036359059
 H     -0.0007801907     -0.0023537630     -0.0150330428
 H     -0.0023917356     -0.0162506215      0.0211781208
 H     -0.0055425258     -0.0099950923     -0.0176586273
 H      0.0260118499     -0.0052508482     -0.0197720338
 H     -0.0096830058      0.0052979987     -0.0089703229
 H     -0.0101045202      0.0017617367      0.0373744513
 H      0.0011634832     -0.0232985983      0.0153127776
 H      0.0079230085     -0.0023254696      0.0192347927
 H      0.0009376605     -0.0100541036      0.0139589220
 H     -0.0090951863     -0.0118014347      0.0439087883
 H     -0.0026820929     -0.0084073795     -0.0104717861
38
# ORCA AIMD Force Step 12, t=6.00 fs, E_Pot=-772.12632290 Hartree, Unit is Hartree/Angstrom
 C      0.0216284049     -0.0371672652      0.0463609188
 C     -0.0188262775     -0.0993908701     -0.0514087049
 C     -0.0340067480     -0.0193542459      0.0057739310
 C     -0.1030139045      0.1035545565     -0.0763794310
 C      0.0216030494     -0.0016067052     -0.0118262023
 C      0.0400183736     -0.0150350321      0.0261200763
 C     -0.0024895620      0.0176179980      0.0275148211
 C     -0.0343826593      0.0422019644      0.0089559858
 C      0.0642858943     -0.0064885566      0.0096740771
 C     -0.0163856669      0.0763399746     -0.0438872931
 C     -0.0122197292     -0.0172724625      0.0848713829
 C      0.0070469910      0.0387976845     -0.0418756895
 C     -0.0754375919      0.0139304760      0.0050840070
 C      0.0678976643     -0.0683888349      0.0764693988
 C      0.0217445035     -0.0066196241     -0.0934672908
 C      0.0040991704      0.0407411659     -0.0617947040
 C     -0.0222902841     -0.0045763897     -0.0878150216
 C      0.0389614183      0.0278713142      0.0338805644
 C      0.0046380240     -0.0125241983     -0.1354073100
 C      0.0000056463      0.0544788236      0.0777371261
 H      0.0036472603      0.0396953560     -0.0222517179
 H      0.0140156434      0.0090854193      0.0136227765
 H      0.0226939397      0.0133295233      0.0222199485
 H      0.0215216195     -0.0198671800      0.0157119728
 H     -0.0016071329     -0.0165147820      0.0298608218
 H     -0.0140982378     -0.0394027689     -0.0126922788
 H      0.0116385344     -0.0086720909     -0.0011653847
 H      0.0006131458     -0.0016488511     -0.0060698771
 H     -0.0064177252     -0.0194530066      0.0255328221
 H     -0.0101118124     -0.0113127307     -0.0140165161
 H      0.0265026000     -0.0053514509     -0.0172679735
 H     -0.0133741197      0.0146791966     -0.0179665397
 H     -0.0100795647      0.0003952109      0.0376651687
 H     -0.0060216037     -0.0101940062      0.0427898854
 H      0.0172584061     -0.0029804283      0.0383831851
 H     -0.0082121843     -0.0244685181      0.0423853221
 H     -0.0159472441     -0.0274345043      0.0450297476
 H     -0.0051972429     -0.0167668065     -0.0202281995
38
# ORCA AIMD Force Step 13, t=6.50 fs, E_Pot=-772.11974203 Hartree, Unit is Hartree/Angstrom
 C      0.0318464875     -0.0423896102      0.0569794175
 C     -0.0215583341     -0.0944098236     -0.0572413119
 C     -0.0354920605     -0.0226129654      0.0072934156
 C     -0.1096072075      0.1051627235     -0.0823394414
 C      0.0209522099     -0.0009611705     -0.0127874814
 C      0.0492123888     -0.0224654541      0.0286875672
 C      0.0042900458      0.0114172536      0.0279776144
 C     -0.0407712986      0.0458419415     -0.0040462845
 C      0.0703131432     -0.0061597960      0.0091317739