38
# ORCA AIMD Position Step 0, t=0.00 fs, E_Pot=-772.16615086 Hartree, Unit is Angstrom
 C      1.6146790072      0.6443410029     -0.7643950034
 C      2.4081540108      1.7218920077     -0.0411220002
 C      3.3344970149      1.4747870066      0.9144920041
 C      3.7028630166      0.1454810007      1.4292800064
 C      2.6655400119     -0.9812050044      1.5863730071
 C      3.7777900169     -1.1008270049      0.5271870024
 C      3.4880210156     -1.0555990047     -0.9164590041
 C      2.5385770114     -0.2970230013     -1.5129380068
 C      1.2392310056     -0.8357700037      1.2373740055
 C      0.7021060031     -0.1242860006      0.2039770009
 C     -0.7773840035      0.0242910001      0.0227700001
 C     -1.3518500061     -0.2642150012     -1.3096450059
 C     -2.6334350118      0.3079770014     -1.8824330084
 C     -3.3337160149      1.4503370065     -1.2638310057
 C     -3.5146370157      1.6035540072      0.0624810003
 C     -3.0218990135      0.6275330028      1.1137980050
 C     -1.5276720068      0.3785090017      1.1147790050
 C     -3.5021670157     -0.7999250036      0.9959550045
 C     -3.4124100153     -1.5385090069     -0.1454750007
 C     -2.7933570125     -1.1113640050     -1.4009750063
 H      0.9663380043      1.1521310052     -1.5012330067
 H      2.2226230100      2.7696660124     -0.3310090015
 H      3.8679330173      2.3290820104      1.3656270061
 H      4.4713460200      0.1598150007      2.2183450099
 H      2.8426720127     -1.6099150072      2.4734400111
 H      4.5838860205     -1.7965780080      0.8073610036
 H      4.1083640184     -1.7121740077     -1.5488850069
 H      2.4237340109     -0.3600170016     -2.6083800117
 H      0.5425650024     -1.3733210062      1.9019290085
 H     -0.5949150027     -0.5294310024     -2.0674490093
 H     -2.5926120116      0.3533350016     -2.9814260134
 H     -3.7088370166      2.2147220099     -1.9646320088
 H     -4.0391530181      2.5080150112      0.4118880018
 H     -3.3122330148      1.0281180046      2.1047790094
 H     -1.0403960047      0.3611150016      2.1017140094
 H     -3.7594860168     -1.3055470058      1.9395510087
 H     -3.7017490166     -2.6006790116     -0.0827760004
 H     -2.8830120129     -1.8583140083     -2.2100350099
38
# ORCA AIMD Position Step 1, t=0.50 fs, E_Pot=-772.16282318 Hartree, Unit is Angstrom
 C      1.6188434077      0.6427537647     -0.7630083204
 C      2.4081590983      1.7277827794     -0.0338740486
 C      3.3392250961      1.4732351155      0.9144532275
 C      3.7086083296      0.1395859274      1.4321297063
 C      2.6628715211     -0.9797509349      1.5841348973
 C      3.7754250704     -1.0992155792      0.5253724037
 C      3.4904524555     -1.0594254444     -0.9182101993
 C      2.5424736512     -0.3007101596     -1.5137420871
 C      1.2358757086     -0.8357411271      1.2370694783
 C      0.7042183916     -0.1323971081      0.2020625807
 C     -0.7746158157      0.0216063175      0.0190991837
 C     -1.3501256420     -0.2682015768     -1.3089699128
 C     -2.6279740720      0.3045903902     -1.8820992856
 C     -3.3373234595      1.4484531344     -1.2659362938
 C     -3.5135874283      1.6014221560      0.0652074262
 C     -3.0189498036      0.6238639149      1.1130843341
 C     -1.5259764299      0.3760124924      1.1148762317
 C     -3.5023672718     -0.7987783343      0.9905916456
 C     -3.4124915552     -1.5337058962     -0.1415362616
 C     -2.7907943671     -1.1135058039     -1.4025679381
 H      0.9516043050      1.1402918696     -1.5070924622
 H      2.2134126556      2.7659743301     -0.3301384841
 H      3.8719227459      2.3367571761      1.3633240673
 H      4.4794024241      0.1665476623      2.2281378348
 H      2.8450770637     -1.6188017572      2.4685244392
 H      4.5874516340     -1.7741344082      0.8121200352
 H      4.1045274008     -1.7183243134     -1.5500446529
 H      2.4234771027     -0.3635275270     -2.6025461804
 H      0.5303615304     -1.3702576193      1.9025002352
 H     -0.5881978464     -0.5144055228     -2.0596960183
 H     -2.6025578538      0.3539179542     -2.9787694921
 H     -3.7058375567      2.2243449324     -1.9728470519
 H     -4.0283024124      2.5158252215      0.3941132675
 H     -3.3141097924      1.0476629249      2.1165284705
 H     -1.0329382441      0.3557776578      2.1141738892
 H     -3.7667976779     -1.3113495339      1.9525440162
 H     -3.7098239283     -2.6074347771     -0.1024667430
 H     -2.8906194353     -1.8667362977     -2.2164999380
38
# ORCA AIMD Position Step 2, t=1.00 fs, E_Pot=-772.15744557 Hartree, Unit is Angstrom
 C      1.6229335387      0.6411862588     -0.7616714116
 C      2.4082399507      1.7336085534     -0.0265568395
 C      3.3438782084      1.4717600272      0.9143487193
 C      3.7143532984      0.1337107372      1.4349992371
 C      2.6602770904     -0.9783382681      1.5819422059
 C      3.7730647675     -1.0975884629      0.5236106643
 C      3.4927927888     -1.0631784241     -0.9200369444
 C      2.5464631427     -0.3044689090     -1.5144831627
 C      1.2324137267     -0.8356795056      1.2366972654
 C      0.7063970124     -0.1405526386      0.2002414301
 C     -0.7719640773      0.0189503908      0.0156017971
 C     -1.3484627966     -0.2722629654     -1.3083090974
 C     -2.6225440531      0.3012380721     -1.8817925474
 C     -3.3409514216      1.4466301750     -1.2679113320
 C     -3.5125187231      1.5993017137      0.0677077212
 C     -3.0160171995      0.6202473873      1.1125075943
 C     -1.5240988439      0.3734993418      1.1149361311
 C     -3.5026335496     -0.7977746357      0.9853067214
 C     -3.4125579561     -1.5289548048     -0.1375671797
 C     -2.7881162813     -1.1156741192     -1.4041863223
 H      0.9381525497      1.1277471068     -1.5117070656
 H      2.2044359861      2.7613293810     -0.3288759052
 H      3.8750345510      2.3429353414      1.3603211661
 H      4.4860323497      0.1730148588      2.2365070089
 H      2.8470636510     -1.6266601680      2.4621478176
 H      4.5901842455     -1.7513291721      0.8165455537
 H      4.1000481197     -1.7237395340     -1.5504940046
 H      2.4233538237     -0.3670176508     -2.5957458347
 H      0.5192543009     -1.3664730902      1.9020247341
 H     -0.5826504782     -0.4997572509     -2.0513339622
 H     -2.6124480977      0.3545809111     -2.9750213102
 H     -3.7022983317      2.2326291235     -1.9794839978
 H     -4.0169006294      2.5224443460      0.3764652327
 H     -3.3152316457      1.0658639654      2.1259494698
 H     -1.0261451340      0.3512341246      2.1244119999
 H     -3.7741287794     -1.3159467775      1.9630101691
 H     -3.7172012714     -2.6120067604     -0.1221206934
 H     -2.8971631479     -1.8735530487     -2.2213125635
38
# ORCA AIMD Position Step 3, t=1.50 fs, E_Pot=-772.15112074 Hartree, Unit is Angstrom
 C      1.6269207331      0.6396426537     -0.7604046590
 C      2.4083800507      1.7392933326     -0.0191886809
 C      3.3484721597      1.4703830475      0.9142022996
 C      3.7200879938      0.1279163472      1.4378864809
 C      2.6577707611     -0.9769940278      1.5798200194
 C      3.7707011644     -1.0959228741      0.5219026133
 C      3.4950369104     -1.0668483491     -0.9219283947
 C      2.5505381205     -0.3082813819     -1.5151188923
 C      1.2288496730     -0.8356148456      1.2362941545
 C      0.7086313001     -0.1487200664      0.1984773248
 C     -0.7694412357      0.0163227285      0.0123257867
 C     -1.3468773008     -0.2763877854     -1.3076536181
 C     -2.6171853508      0.2979476228     -1.8814972427
 C     -3.3445864194      1.4448698588     -1.2697492817
 C     -3.5114155153      1.5971865918      0.0699075844
 C     -3.0131235684      0.6167481896      1.1121395152
 C     -1.5219866485      0.3709604484      1.1149894119
 C     -3.5030037454     -0.7969234676      0.9802654357
 C     -3.4126116914     -1.5243602566     -0.1336849735
 C     -2.7853251970     -1.1178892173     -1.4058366166
 H      0.9265192267      1.1144178269     -1.5146724888
 H      2.1957085049      2.7562467285     -0.3272288119
 H      3.8772176857      2.3473270236      1.3565973103
 H      4.4910245057      0.1790211899      2.2431758540
 H      2.8485318534     -1.6333600069      2.4541867542
 H      4.5924060537     -1.7287374854      0.8206969920
 H      4.0951129885     -1.7285995037     -1.5503377584
 H      2.4233161529     -0.3705366245     -2.5885175178
 H      0.5094733048     -1.3619148409      1.9004287177
 H     -0.5779999019     -0.4857344924     -2.0428051609
 H     -2.6220824351      0.3552522504     -2.9704604062
 H     -3.6980931066      2.2391686264     -1.9842029099
 H     -4.0050798802      2.5279962716      0.3593011057
 H     -3.3153294941      1.0820904176      2.1321941756
 H     -1.0203499776      0.3474893278      2.1317419978
 H     -3.7812313102     -1.3188647069      1.9699977628
 H     -3.7237414138     -2.6137189751     -0.1414439448
 H     -2.9025668498     -1.8784846112     -2.2241484614
38
# ORCA AIMD Position Step 4, t=2.00 fs, E_Pot=-772.14487182 Hartree, Unit is Angstrom
 C      1.6307862030      0.6381187517     -0.7592183548
 C      2.4085646938      1.7447610327     -0.0117825591
 C      3.3530197768      1.4691150558      0.9140337213
 C      3.7257954127      0.1222604618      1.4407820042
 C      2.6553627815     -0.9757373471      1.5777820327
 C      3.7683219952     -1.0941956977      0.5202459570
 C      3.4971797097     -1.0704250818     -0.9238690418
 C      2.5546920454     -0.3121297327     -1.5156043899
 C      1.2251952517     -0.8355726357      1.2358923223
 C      0.7109101119     -0.1568693764      0.1967310876
 C     -0.7670562855      0.0137204141      0.0093145836
 C     -1.3453877296     -0.2805671970     -1.3069912320
 C     -2.6119353415      0.2947440501     -1.8811928685
 C     -3.3482111541      1.4431628711     -1.2714388156
 C     -3.5102609410      1.5950654947      0.0717401366
 C     -3.0102823042      0.6134193574      1.1120279870
 C     -1.5195973518      0.3683867049      1.1150516918
 C     -3.5035096712     -0.7962184360      0.9756082565
 C     -3.4126508361     -1.5200100877     -0.1300083775
 C     -2.7824204095     -1.1201614819     -1.4075143125
 H      0.9171328813      1.1003016764     -1.5157052888
 H      2.1872230136      2.7512801057     -0.3252261336
 H      3.8784927687      2.3497621082      1.3521872823
 H      4.4942819030      0.1843821650      2.2479846195
 H      2.8494085762     -1.6388547476      2.4446283577
 H      4.5944735252     -1.7069316404      0.8246496922
 H      4.0899430240     -1.7331302132     -1.5497229076
 H      2.4233058797     -0.3741384623     -2.5814454286
 H      0.5011572721     -1.3565908883      1.8977171452
 H     -0.5739294895     -0.4725742443     -2.0345748038
 H     -2.6312723486      0.3558667928     -2.9654215226
 H     -3.6931568291      2.2436836585     -1.9867816080
 H     -3.9929838737      2.5326554900      0.3429656522
 H     -3.3142130466      1.0958338700      2.1346900976
 H     -1.0157806206      0.3445457665      2.1356900556
 H     -3.7879351547     -1.3197790357      1.9728392789
 H     -3.7293588204     -2.6120977332     -0.1601389838
 H     -2.9067705893     -1.8813813043     -2.2248246100
38
# ORCA AIMD Position Step 5, t=2.50 fs, E_Pot=-772.13947926 Hartree, Unit is Angstrom
 C      1.6345206309      0.6366027729     -0.7581128711
 C      2.4087806037      1.7499377164     -0.0043487184
 C      3.3575292150      1.4679567883      0.9138582683
 C      3.7314499816      0.1167982656      1.4436680003
 C      2.6530602499     -0.9745794492      1.5758311779
 C      3.7659146942     -1.0923864574      0.5186372792
 C      3.4992161692     -1.0738976948     -0.9258395128
 C      2.5589177975     -0.3159955187     -1.5158964257
 C      1.2214700297     -0.8355734292      1.2355184956
 C      0.7132214619     -0.1649715060      0.1949619718
 C     -0.7648153282      0.0111387363      0.0066075819
 C     -1.3440137069     -0.2847944789     -1.3063092923
 C     -2.6068292519      0.2916503573     -1.8808558570
 C     -3.3518039427      1.4414891314     -1.2729638402
 C     -3.5090376286      1.5929237830      0.0731460281
 C     -3.0074991236      0.6103030995      1.1121995466
 C     -1.5168992645      0.3657698551      1.1151237452
 C     -3.5041770637     -0.7956403229      0.9714516214
 C     -3.4126689678     -1.5159746691     -0.1266549706
 C     -2.7793983154     -1.1224903861     -1.4092035006
 H      0.9103078927      1.0854720811     -1.5146460383
 H      2.1789596363      2.7469769754     -0.3229061418
 H      3.8789509824      2.3501917406      1.3471820167
 H      4.4958204355      0.1889268970      2.2508904840
 H      2.8496497130     -1.6431841122      2.4335724379
 H      4.5967376569     -1.6864545957      0.8284802586
 H      4.0847821407     -1.7375904269     -1.5488264526
 H      2.4232599808     -0.3778779947     -2.5751086379
 H      0.4943521898     -1.3505713783      1.8939764216
 H     -0.5701112236     -0.4604951342     -2.0271005737
 H     -2.6398415405      0.3563662489     -2.9602713908
 H     -3.6874833618      2.2460222584     -1.9871148456
 H     -3.9807609285      2.5366301729      0.3277874228
 H     -3.3117628342      1.1067020341      2.1331114594
 H     -1.0125612032      0.3424043369      2.1359904351
 H     -3.7941435732     -1.3185002727      1.9711282518
 H     -3.7340239089     -2.6068745679     -0.1779119438
 H     -2.9097320384     -1.8822236771     -2.2233000707
38
# ORCA AIMD Position Step 6, t=3.00 fs, E_Pot=-772.13538550 Hartree, Unit is Angstrom
 C      1.6381225699      0.6350773467     -0.7570795108
 C      2.4090145356      1.7547525530      0.0031004439
 C      3.3620025914      1.4668992533      0.9136875588
 C      3.7370153337      0.1115840934      1.4465170191
 C      2.6508674943     -0.9735243097      1.5739607983
 C      3.7634707779     -1.0904807730      0.5170733986
 C      3.5011431002     -1.0772556240     -0.9278164582
 C      2.5632051391     -0.3198579270     -1.5159568700
 C      1.2177037381     -0.8356336704      1.2351947478
 C      0.7155514223     -0.1729947151      0.1931283710
 C     -0.7627227951      0.0085719914      0.0042401986
 C     -1.3427727169     -0.2890639758     -1.3055963464
 C     -2.6019022909      0.2886887108     -1.8804618786
 C     -3.3553376191      1.4398187998     -1.2743017806
 C     -3.5077288536      1.5907456951      0.0740734998
 C     -3.0047742847      0.6074328476      1.1126610788
 C     -1.5138725877      0.3631031261      1.1151906859
 C     -3.5050253243     -0.7951585970      0.9678903530
 C     -3.4126549240     -1.5123069828     -0.1237401721
 C     -2.7762532910     -1.1248638311     -1.4108765940
 H      0.9062495069      1.0700744231     -1.5114528869
 H      2.1708990450      2.7438373305     -0.3203040918
 H      3.8787524832      2.3486891316      1.3417292553
 H      4.4957697762      0.1925007707      2.2519693948
 H      2.8492401576     -1.6464696631      2.4212288628
 H      4.5994990679     -1.6677969314      0.8322485419
 H      4.0798794795     -1.7422477236     -1.5478358817
 H      2.4231162011     -0.3818067106     -2.5700439161
 H      0.4890151906     -1.3439882259      1.8893724667
 H     -0.5662417426     -0.4496955891     -2.0208033798
 H     -2.6476239836      0.3566990192     -2.9553905131
 H     -3.6811258745      2.2461632783     -1.9852174260
 H     -3.9685562345      2.5401329626      0.3140749638
 H     -3.3079223829      1.1144079037      2.1273512767
 H     -1.0107105850      0.3410642176      2.1325886090
 H     -3.7998276411     -1.3149627156      1.9647000451
 H     -3.7377651709     -2.5979971357     -0.1944770247
 H     -2.9114273406     -1.8811220938     -2.2196761625
38
# ORCA AIMD Position Step 7, t=3.50 fs, E_Pot=-772.13263230 Hartree, Unit is Angstrom
 C      1.6415984369      0.6335199327     -0.7561005271
 C      2.4092528354      1.7591419701      0.0105477788
 C      3.3664344340      1.4659243409      0.9135291076
 C      3.7424434495      0.1066716153      1.4492912742
 C      2.6487871011     -0.9725686516      1.5721557642
 C      3.7609906962     -1.0884729046      0.5155542840
 C      3.5029589040     -1.0804883571     -0.9297744561
 C      2.5675391393     -0.3236937242     -1.5157593351
 C      1.2139358895     -0.8357643472      1.2349370130
 C      0.7178844757     -0.1809039135      0.1911903286
 C     -0.7607817024      0.0060144471      0.0022444702
 C     -1.3416782422     -0.2933701819     -1.3048468340
 C     -2.5971902458      0.2858809691     -1.8799885924
 C     -3.3587791108      1.4381126095     -1.2754248731
 C     -3.5063197935      1.5885169828      0.0744795247
 C     -3.0021026993      0.6048327448      1.1134005513
 C     -1.5105112818      0.3603827479      1.1152233435
 C     -3.5060666938     -0.7947352257      0.9649941974
 C     -3.4125932070     -1.5090407936     -0.1213721904
 C     -2.7729783833     -1.1272569521     -1.4124937757
 H      0.9050375360      1.0543310785     -1.5062142557
 H      2.1630372445      2.7422581802     -0.3174356176
 H      3.8781224538      2.3454476678      1.3360310057
 H      4.4943676724      0.1949689352      2.2514122040
 H      2.8481962411     -1.6489171611      2.4079187358
 H      4.6029620652     -1.6513713966      0.8359804769
 H      4.0754747266     -1.7473603686     -1.5469329958
 H      2.4228227289     -0.3859667868     -2.5666698318
 H      0.4850147175     -1.3370340622      1.8841518146
 H     -0.5620824800     -0.4403473869     -2.0160304567
 H     -2.6544630381      0.3568196078     -2.9511370929
 H     -3.6741944586      2.2442195851     -1.9812247965
 H     -3.9565066901      2.5433657297      0.3021134503
 H     -3.3026991787      1.1187753938      2.1175208593
 H     -1.0101440917      0.3405236201      2.1256389985
 H     -3.8050276650     -1.3092221699      1.9536336791
 H     -3.7406715051     -2.5856309833     -0.2095640730
 H     -2.9118549591     -1.8783208256     -2.2142011319
38
# ORCA AIMD Position Step 8, t=4.00 fs, E_Pot=-772.13084584 Hartree, Unit is Angstrom
 C      1.6449621840      0.6319041810     -0.7551493022
 C      2.4094799400      1.7630523793      0.0179680721
 C      3.3708115946      1.4650055704      0.9133871264
 C      3.7476746113      0.1021136547      1.4519427047
 C      2.6468198549     -0.9717028645      1.5703940278
 C      3.7584870725     -1.0863679339      0.5140839551
 C      3.5046658919     -1.0835877632     -0.9316869677
 C      2.5718981736     -0.3274762909     -1.5152932358
 C      1.2102162178     -0.8359716684      1.2347556042
 C      0.7202027171     -0.1886591252      0.1891103752
 C     -0.7589935778      0.0034604968      0.0006474758
 C     -1.3407362138     -0.2977069054     -1.3040621948
 C     -2.5927302678      0.2832491081     -1.8794183742
 C     -3.3620892601      1.4363226092     -1.2763000762
 C     -3.5047985924      1.5862270164      0.0743311079
 C     -2.9994748292      0.6025174362      1.1143860507
 C     -1.5068243969      0.3576081151      1.1151768544
 C     -3.5073049733     -0.7943252363      0.9628047618
 C     -3.4124637998     -1.5061884129     -0.1196486281
 C     -2.7695659560     -1.1296320816     -1.4140035507
 H      0.9066218844      1.0385371098     -1.4991487037
 H      2.1553990968      2.7424918229     -0.3142832614
 H      3.8773462957      2.3407777611      1.3303402495
 H      4.4919588538      0.1962216406      2.2495253043
 H      2.8465649207     -1.6508074746      2.3940624245
 H      4.6071981983     -1.6374934254      0.8396541315
 H      4.0717770660     -1.7531499511     -1.5462714451
 H      2.4223462846     -0.3903871002     -2.5652437454
 H      0.4821368141     -1.3299572307      1.8786345295
 H     -0.5574944789     -0.4325931767     -2.0130242578
 H     -2.6602112787      0.3566878729     -2.9478190862
 H     -3.6668549605      2.2404422093     -1.9753966569
 H     -3.9447334089      2.5464933981      0.2921569922
 H     -3.2961682354      1.1197506131      2.1039594962
 H     -1.0106643851      0.3407784377      2.1155253543
 H     -3.8098594622     -1.3014653627      1.9382722997
 H     -3.7428985470     -2.5701793717     -0.2229294146
 H     -2.9110394029     -1.8741990411     -2.2072706335
38
# ORCA AIMD Position Step 9, t=4.50 fs, E_Pot=-772.12931142 Hartree, Unit is Angstrom
 C      1.6482368088      0.6302002871     -0.7541897966
 C      2.4096781687      1.7664437810      0.0253280660
 C      3.3751143240      1.4641090351      0.9132633865
 C      3.7526395323      0.0979600229      1.4544142465
 C      2.6449653379     -0.9709116920      1.5686478030
 C      3.7559862485     -1.0841821170      0.5126714164
 C      3.5062720450     -1.0865505411     -0.9335279954
 C      2.5762538067     -0.3311766599     -1.5145673721
 C      1.2066029684     -0.8362576769      1.2346551146
 C      0.7224863571     -0.1962166958      0.1868544705
 C     -0.7573578532      0.0009041070     -0.0005303134
 C     -1.3399425344     -0.3020673624     -1.3032523912
 C     -2.5885598342      0.2808144219     -1.8787411430
 C     -3.3652234453      1.4343923655     -1.2768899991
 C     -3.5031570929      1.5838703834      0.0736071823
 C     -2.9968755180      0.6004904406      1.1155634027
 C     -1.5028370217      0.3547814161      1.1149908158
 C     -3.5087338123     -0.7938773406      0.9613287604
 C     -3.4122421963     -1.5037375412     -0.1186518824
 C     -2.7660079227     -1.1319397204     -1.4153437573
 H      0.9108094598      1.0230557974     -1.4906109941
 H      2.1480482407      2.7446128016     -0.3107858831
 H      3.8767581598      2.3350928748      1.3249509719
 H      4.4889825889      0.1961784766      2.2467201602
 H      2.8444208537     -1.6524833808      2.3801593701
 H      4.6121211963     -1.6263647064      0.8431912463
 H      4.0689465676     -1.7597774914     -1.5459578372
 H      2.4216806221     -0.3950796900     -2.5658224236
 H      0.4800924123     -1.3230525719      1.8732028820
 H     -0.5524624838     -0.4265436852     -2.0118978930
 H     -2.6647313655      0.3562675298     -2.9456588474
 H     -3.6593249147      2.2352215300     -1.9681170663
 H     -3.9333325115      2.5496184680      0.2844174480
 H     -3.2884800307      1.1174255022      2.0872599658
 H     -1.0119563230      0.3418220394      2.1028708845
 H     -3.8145282008     -1.2920280702      1.9192605840
 H     -3.7446735928     -2.5522929767     -0.2343711394
 H     -2.9090340168     -1.8692663089     -2.1994219985
38
# ORCA AIMD Position Step 10, t=5.00 fs, E_Pot=-772.12715828 Hartree, Unit is Angstrom
 C      1.6514551589      0.6283754086     -0.7531774534
 C      2.4098270042      1.7692941571      0.0325919451
 C      3.3793211961      1.4631960003      0.9131570659
 C      3.7572665501      0.0942536804      1.4566449798
 C      2.6432199249     -0.9701761166      1.5668868121
 C      3.7535254807     -1.0819400668      0.5113290032
 C      3.5077923863     -1.0893809525     -0.9352767391
 C      2.5805742077     -0.3347664454     -1.5136104016
 C      1.2031560390     -0.8366193174      1.2346346227
 C      0.7247166429     -0.2035375805      0.1843937130
 C     -0.7558705612     -0.0016615657     -0.0012764249
 C     -1.3392832526     -0.3064469165     -1.3024360140
 C     -2.5847132038      0.2785962490     -1.8779549377
 C     -3.3681369724      1.4322590733     -1.2771577705
 C     -3.5013900250      1.5814466380      0.0723001208
 C     -2.9942820936      0.5987379779      1.1168567594
 C     -1.4985876804      0.3519070903      1.1145911209
 C     -3.5103363272     -0.7933362031      0.9605309259
 C     -3.4119000908     -1.5016465129     -0.1184396720
 C     -2.7622929605     -1.1341232863     -1.4164468746
 H      0.9172606245      1.0082998151     -1.4810857148
 H      2.1410802385      2.7485156873     -0.3068364112
 H      3.8767195604      2.3288759877      1.3201747885
 H      4.4859422342      0.1947928909      2.2434834542
 H      2.8418602322     -1.6543269196      2.3667396993
 H      4.6175066769     -1.6180719950      0.8464685732
 H      4.0670710781     -1.7673280399     -1.5460311839
 H      2.4208459620     -0.4000422216     -2.5682473773
 H      0.4785482274     -1.3166292791      1.8682678296
 H     -0.5470986570     -0.4222696489     -2.0126260095
 H     -2.6679029837      0.3555281161     -2.9447779163
 H     -3.6518531704      2.2290648520     -1.9598691399
 H     -3.9223652270      2.5527904926      0.2790534931
 H     -3.2798641676      1.1120639104      2.0682816924
 H     -1.0135934518      0.3436478640      2.0885193237
 H     -3.8193445108     -1.2813918190      1.8975420059
 H     -3.7463040316     -2.5328540472     -0.2437542762
 H     -2.9059191751     -1.8641292105     -2.1912968340
38
# ORCA AIMD Position Step 11, t=5.50 fs, E_Pot=-772.12368939 Hartree, Unit is Angstrom
 C      1.6546616590      0.6263935973     -0.7520587801
 C      2.4099044739      1.7715976896      0.0397230337
 C      3.3834111838      1.4622252587      0.9130674006
 C      3.7614849566      0.0910294444      1.4585727029
 C      2.6415787249     -0.9694755931      1.5650798576
 C      3.7511510198     -1.0796731832      0.5100718410
 C      3.5092500248     -1.0920928237     -0.9369170336
 C      2.5848252076     -0.3382191669     -1.5124683451
 C      1.1999349229     -0.8370519893      1.2346895113
 C      0.7268756095     -0.2105870507      0.1817031366
 C     -0.7545238505     -0.0042461892     -0.0015880278
 C     -1.3387341093     -0.3108430982     -1.3016383099
 C     -2.5812205717      0.2766106549     -1.8770672979
 C     -3.3707846434      1.4298540253     -1.2770672483
 C     -3.4994948627      1.5789603422      0.0704156570
 C     -2.9916627203      0.5972294725      1.1181648693
 C     -1.4941266704      0.3489897262      1.1138915512
 C     -3.5120835258     -0.7926404793      0.9603309623
 C     -3.4114052127     -1.4998457931     -0.1190469877
 C     -2.7584072421     -1.1361224296     -1.4172425733
 H      0.9255001737      0.9947190491     -1.4711729411
 H      2.1346245787      2.7539285601     -0.3022846001
 H      3.8775963921      2.3226399233      1.3163232814
 H      4.4833726675      0.1920465075      2.2403433724
 H      2.8389886404     -1.6567233357      2.3543247098
 H      4.6230013741     -1.6125961985      0.8493217469
 H      4.0661648123     -1.7758001304     -1.5464598778
 H      2.4198921987     -0.4052575756     -2.5721717597
 H      0.4771480418     -1.3109966082      1.8642449837
 H     -0.5416315900     -0.4198115715     -2.0150546100
 H     -2.6696197238      0.3544414245     -2.9451755987
 H     -3.6447109755      2.2225726851     -1.9512147734
 H     -3.9118539094      2.5559757404      0.2761653666
 H     -3.2706350222      1.1041193117      2.0481731836
 H     -1.0150471706      0.3462524411      2.0735132465
 H     -3.8247412853     -1.2702036187      1.8743917008
 H     -3.7481707031     -2.5129547588     -0.2510154977
 H     -2.9017938103     -1.8594571868     -2.1836028313
38
# ORCA AIMD Position Step 12, t=6.00 fs, E_Pot=-772.11875793 Hartree, Unit is Angstrom
 C      1.6579110648      0.6242164839     -0.7507733210
 C      2.4098876341      1.7733629528      0.0466895133
 C      3.3873686842      1.4611573610      0.9129947523
 C      3.7652321441      0.0883126937      1.4601398632
 C      2.6400352011     -0.9687915777      1.5631988771
 C      3.7489128459     -1.0774156539      0.5089152788
 C      3.5106760623     -1.0947104127     -0.9384393082
 C      2.5889740629     -0.3415123870     -1.5111993004
 C      1.1969921238     -0.8375505957      1.2348133087
 C      0.7289481361     -0.2173402873      0.1787615403
 C     -0.7533051482     -0.0068629557     -0.0014715242
 C     -1.3382633461     -0.3152580215     -1.3008882998
 C     -2.5781059738      0.2748697768     -1.8760940665
 C     -3.3731251211      1.4271060902     -1.2765872434
 C     -3.4974702282      1.5764196148      0.0679724326
 C     -2.9889752319      0.5959149732      1.1193628159
 C     -1.4895104239      0.3460328354      1.1127992428
 C     -3.5139353716     -0.7917241329      0.9606054452
 C     -3.4107223914     -1.4982408475     -0.1204843560
 C     -2.7543325648     -1.1378804973     -1.4176646641
 H      0.9349485424      0.9827758271     -1.4615551241
 H      2.1288292511      2.7604563406     -0.2969478640
 H      3.8797283697      2.3168705457      1.3136794844
 H      4.4817882465      0.1879417048      2.2378140179
 H      2.8359073242     -1.6600201154      2.3433673447
 H      4.6281735744     -1.6098377465      0.8515669397
 H      4.0661669174     -1.7851106624     -1.5471412790
 H      2.4188902703     -0.4106996603     -2.5771107012
 H      0.4755574515     -1.3064288213      1.8615129059
 H     -0.5363741580     -0.4191838594     -2.0189302696
 H     -2.6697917538      0.3529829876     -2.9467416340
 H     -3.6381670703      2.2163879210     -1.9427472548
 H     -3.9017786398      2.5590674859      0.2757944060
 H     -3.2611854594      1.0942361286      2.0283556410
 H     -1.0157214956      0.3496423417      2.0590151958
 H     -3.8312802650     -1.2592514516      1.8513637582
 H     -3.7507192892     -2.4938301976     -0.2561689695
 H     -2.8967603012     -1.8559136775     -2.1770392632
38
# ORCA AIMD Position Step 13, t=6.50 fs, E_Pot=-772.11305897 Hartree, Unit is Angstrom
 C      1.6612660890      0.6218042126     -0.7492565702
 C      2.4097542720      1.7746079205      0.0534669914
 C      3.3911860944      1.4599589609      0.9129429078
 C      3.7684576286      0.0861206298      1.4612977131
 C      2.6385825924     -0.9681111098      1.5612221368
 C      3.7468611958     -1.0752021867      0.5078735921
 C      3.5121079985     -1.0972671675     -0.9398397210
 C      2.5929912793     -0.3446284897     -1.5098679422
 C      1.1943698187     -0.8381122770      1.2350003791
 C      0.7309219946     -0.2237827497      0.1755511378