38
# ORCA AIMD Force Step 0, t=0.00 fs, E_Pot=-772.16615086 Hartree, Unit is Hartree/Angstrom
 C      0.0000000000      0.0000000000      0.0000000000
 C      0.0000000000      0.0000000000      0.0000000000
 C      0.0000000000      0.0000000000      0.0000000000
 C      0.0000000000      0.0000000000      0.0000000000
 C      0.0000000000      0.0000000000      0.0000000000
 C      0.0000000000      0.0000000000      0.0000000000
 C      0.0000000000      0.0000000000      0.0000000000
 C      0.0000000000      0.0000000000      0.0000000000
 C      0.0000000000      0.0000000000      0.0000000000
 C      0.0000000000      0.0000000000      0.0000000000
 C      0.0000000000      0.0000000000      0.0000000000
 C      0.0000000000      0.0000000000      0.0000000000
 C      0.0000000000      0.0000000000      0.0000000000
 C      0.0000000000      0.0000000000      0.0000000000
 C      0.0000000000      0.0000000000      0.0000000000
 C      0.0000000000      0.0000000000      0.0000000000
 C      0.0000000000      0.0000000000      0.0000000000
 C      0.0000000000      0.0000000000      0.0000000000
 C      0.0000000000      0.0000000000      0.0000000000
 C      0.0000000000      0.0000000000      0.0000000000
 H      0.0000000000      0.0000000000      0.0000000000
 H      0.0000000000      0.0000000000      0.0000000000
 H      0.0000000000      0.0000000000      0.0000000000
 H      0.0000000000      0.0000000000      0.0000000000
 H      0.0000000000      0.0000000000      0.0000000000
 H      0.0000000000      0.0000000000      0.0000000000
 H      0.0000000000      0.0000000000      0.0000000000
 H      0.0000000000      0.0000000000      0.0000000000
 H      0.0000000000      0.0000000000      0.0000000000
 H      0.0000000000      0.0000000000      0.0000000000
 H      0.0000000000      0.0000000000      0.0000000000
 H      0.0000000000      0.0000000000      0.0000000000
 H      0.0000000000      0.0000000000      0.0000000000
 H      0.0000000000      0.0000000000      0.0000000000
 H      0.0000000000      0.0000000000      0.0000000000
 H      0.0000000000      0.0000000000      0.0000000000
 H      0.0000000000      0.0000000000      0.0000000000
 H      0.0000000000      0.0000000000      0.0000000000
38
# ORCA AIMD Force Step 1, t=0.50 fs, E_Pot=-772.16282318 Hartree, Unit is Hartree/Angstrom
 C     -0.0141011104      0.0038059119     -0.0092766468
 C      0.0138588888     -0.0126185849      0.0117725455
 C     -0.0142987911      0.0142413410     -0.0120193590
 C     -0.0007736728      0.0043664187      0.0032751179
 C      0.0138777605     -0.0077535744      0.0085851447
 C      0.0011420151      0.0026709237      0.0098939071
 C     -0.0169667094      0.0139112167     -0.0136035428
 C      0.0165031270     -0.0126399062      0.0116247931
 C     -0.0191005942      0.0059863851     -0.0123439235
 C      0.0118544193     -0.0071228503      0.0172984563
 C     -0.0216442686      0.0055923406      0.0321792417
 C     -0.0114667927     -0.0131922261     -0.0026952777
 C     -0.0063318087      0.0066920834     -0.0049775270
 C     -0.0033069858      0.0113756838      0.0240867826
 C      0.0033673148      0.0023507207     -0.0417029266
 C     -0.0034025077      0.0100686141      0.0251368276
 C      0.0330847981     -0.0027353425     -0.0068402283
 C     -0.0120524240     -0.0262951679      0.0150113702
 C      0.0027794354     -0.0101099340      0.0050633359
 C      0.0208002741     -0.0045856362     -0.0044588993
 H      0.0198331998     -0.0107097929      0.0191716399
 H      0.0036831175     -0.0145961051      0.0060098420
 H     -0.0135191911     -0.0230614389     -0.0107218276
 H     -0.0219827540     -0.0041452817     -0.0219573699
 H     -0.0064491704      0.0158791910     -0.0223788190
 H     -0.0128251573      0.0053187967     -0.0051694563
 H     -0.0098262588      0.0113487832      0.0109163855
 H      0.0020541228      0.0003496459      0.0147772429
 H      0.0169560669      0.0110390826     -0.0160751618
 H     -0.0180281720     -0.0059468297      0.0092698039
 H      0.0009567917      0.0012221646      0.0167314577
 H      0.0082552663     -0.0206519344      0.0243120328
 H      0.0083489587     -0.0183664806      0.0021296052
 H      0.0116089850     -0.0208339793     -0.0358682274
 H     -0.0102810509      0.0122418883     -0.0342376699
 H     -0.0002225415      0.0185636149     -0.0389268407
 H      0.0107928165      0.0335952844      0.0007692472
 H      0.0164089138      0.0247354587      0.0254330570
38
# ORCA AIMD Force Step 2, t=1.00 fs, E_Pot=-772.15744557 Hartree, Unit is Hartree/Angstrom
 C     -0.0205223073      0.0050229877     -0.0133813170
 C      0.0107955764     -0.0282031891      0.0062579745
 C     -0.0127559686      0.0185482047     -0.0076169942
 C     -0.0042760706      0.0172213639      0.0020396779
 C      0.0171863459     -0.0130968037      0.0138023062
 C      0.0003820823      0.0063527844      0.0105486846
 C     -0.0185626701      0.0167475219     -0.0110643065
 C      0.0139598396     -0.0082505260      0.0195646083
 C     -0.0172115638      0.0005296540     -0.0054921978
 C      0.0092653859      0.0012299982      0.0111870308
 C     -0.0246668761      0.0062749539      0.0419233988
 C     -0.0148322099     -0.0098986065     -0.0012512195
 C     -0.0153021326      0.0127079146     -0.0022178929
 C      0.0002285297      0.0122109883      0.0258816611
 C      0.0058602982      0.0018576692     -0.0559570022
 C     -0.0083477423      0.0229554256      0.0383799584
 C      0.0420983219     -0.0036561479     -0.0012347600
 C     -0.0188830926     -0.0282986755      0.0467387144
 C      0.0023427482     -0.0305965048     -0.0175361590
 C      0.0195359774     -0.0076458168     -0.0051569579
 H      0.0283652024     -0.0115946385      0.0254593491
 H      0.0041369271     -0.0065514411      0.0058540430
 H     -0.0143544029     -0.0276202899     -0.0109539104
 H     -0.0253549200     -0.0072960399     -0.0263754849
 H     -0.0080213876      0.0180472833     -0.0240812201
 H     -0.0079312274     -0.0040747172     -0.0043593124
 H     -0.0068356063      0.0087070166      0.0093053398
 H      0.0013175119     -0.0003202691      0.0063266385
 H      0.0207329556      0.0117359285     -0.0171715402
 H     -0.0139507307     -0.0101082867      0.0022648356
 H      0.0042719862      0.0001053546      0.0123354737
 H      0.0100921460     -0.0270529587      0.0296542922
 H      0.0060272980     -0.0166022446      0.0080412123
 H      0.0157470757     -0.0309269519     -0.0490529636
 H     -0.0155461514      0.0124114356     -0.0449678196
 H      0.0037630109      0.0259209796     -0.0537261982
 H      0.0131007386      0.0440277304      0.0057613365
 H      0.0177165034      0.0291567595      0.0304907143
38
# ORCA AIMD Force Step 3, t=1.50 fs, E_Pot=-772.15112074 Hartree, Unit is Hartree/Angstrom
 C     -0.0254038378      0.0048279603     -0.0156988448
 C      0.0080215218     -0.0441678281      0.0010589233
 C     -0.0121218549      0.0209977605     -0.0039292694
 C     -0.0095512968      0.0299081810     -0.0007895043
 C      0.0199554551     -0.0170590513      0.0170656583
 C     -0.0009582917      0.0099177903      0.0107456046
 C     -0.0202892339      0.0199412503     -0.0074753085
 C      0.0111670729     -0.0035122300      0.0279377588
 C     -0.0136596002     -0.0041507312      0.0005548010
 C      0.0063488611      0.0098180324      0.0046686647
 C     -0.0271886146      0.0067226848      0.0509626287
 C     -0.0187787220     -0.0066802357      0.0007386656
 C     -0.0241175740      0.0184855563      0.0014206589
 C      0.0047712372      0.0111403782      0.0285643810
 C      0.0084997639      0.0005948436     -0.0688211980
 C     -0.0118681395      0.0338963138      0.0471373459
 C      0.0489127598     -0.0043397014      0.0016006913
 C     -0.0244880552     -0.0273616947      0.0741526606
 C      0.0027069517     -0.0482836270     -0.0406369428
 C      0.0185365860     -0.0086725659     -0.0036879101
 H      0.0352099948     -0.0111660956      0.0298131400
 H      0.0042919522      0.0021179799      0.0053386725
 H     -0.0140606708     -0.0302759216     -0.0102655501
 H     -0.0269167111     -0.0102909605     -0.0289492386
 H     -0.0091618184      0.0189146255     -0.0239443997
 H     -0.0025136153     -0.0135531252     -0.0033230812
 H     -0.0032683786      0.0053705461      0.0070170325
 H      0.0004223496     -0.0010343906     -0.0028774837
 H      0.0231028010      0.0114284385     -0.0169875952
 H     -0.0092012923     -0.0141547773     -0.0051437447
 H      0.0074546359     -0.0009152399      0.0070192925
 H      0.0109210757     -0.0314596545      0.0331114759
 H      0.0034272338     -0.0140508785      0.0138464053
 H      0.0186139538     -0.0391339477     -0.0578626501
 H     -0.0191713267      0.0125283203     -0.0523138742
 H      0.0065844127      0.0308975958     -0.0640003194
 H      0.0145771297      0.0511951508      0.0109190437
 H      0.0187492255      0.0315114405      0.0332848698
38
# ORCA AIMD Force Step 4, t=2.00 fs, E_Pot=-772.14487182 Hartree, Unit is Hartree/Angstrom
 C     -0.0285730425      0.0032872948     -0.0161745730
 C      0.0054793870     -0.0596869138     -0.0038975858
 C     -0.0124607851      0.0215449387     -0.0010500473
 C     -0.0165386562      0.0421633679     -0.0052379892
 C      0.0221431386     -0.0195357233      0.0183552618
 C     -0.0022546965      0.0128792930      0.0107532958
 C     -0.0219852225      0.0233137276     -0.0030934454
 C      0.0080786306      0.0014722698      0.0358715205
 C     -0.0084952302     -0.0078942205      0.0055935354
 C      0.0031796760      0.0184565464     -0.0020617403
 C     -0.0291453064      0.0069097022      0.0591220806
 C     -0.0228750765     -0.0036784369      0.0027655570
 C     -0.0325954635      0.0239132159      0.0055846038
 C      0.0102083763      0.0081275100      0.0320465343
 C      0.0111410617     -0.0011956433     -0.0800319879
 C     -0.0140283220      0.0427945765      0.0517658849
 C      0.0534305057     -0.0047506014      0.0017072502
 C     -0.0288375392     -0.0240003660      0.0969219041
 C      0.0038797938     -0.0626646859     -0.0633895360
 C      0.0178834618     -0.0075833297     -0.0000678807
 H      0.0401572657     -0.0094881015      0.0321264140
 H      0.0042606303      0.0106595205      0.0046537316
 H     -0.0126326383     -0.0309431759     -0.0086634964
 H     -0.0266399994     -0.0130375780     -0.0296143104
 H     -0.0098174401      0.0183950974     -0.0219518687
 H      0.0028003961     -0.0225513317     -0.0022704331
 H      0.0006635086      0.0015386869      0.0042479489
 H     -0.0005442566     -0.0017421828     -0.0119722116
 H      0.0239708047      0.0101063072     -0.0154774397
 H     -0.0042723949     -0.0178834120     -0.0124085304
 H      0.0104333184     -0.0018238971      0.0011915937
 H      0.0107828759     -0.0337712693      0.0346313947
 H      0.0007157906     -0.0109504247      0.0193701429
 H      0.0203017882     -0.0454044494     -0.0626198138
 H     -0.0211262075      0.0125763333     -0.0562331370
 H      0.0082632843      0.0336609657     -0.0699710472
 H      0.0151464046      0.0549677773      0.0160103185
 H      0.0194414002      0.0317379983      0.0337530710
38
# ORCA AIMD Force Step 5, t=2.50 fs, E_Pot=-772.13947926 Hartree, Unit is Hartree/Angstrom
 C     -0.0300586625      0.0006817164     -0.0148930110
 C      0.0029413055     -0.0741332725     -0.0089920649
 C     -0.0137184429      0.0201891966      0.0011423705
 C     -0.0252183081      0.0538475819     -0.0113118357
 C      0.0236507067     -0.0205576893      0.0177547197
 C     -0.0028553242      0.0147039786      0.0107118908
 C     -0.0231838602      0.0263996515      0.0019438455
 C      0.0045230597      0.0067431790      0.0426582271
 C     -0.0015778143     -0.0108299408      0.0097168192
 C     -0.0002730157      0.0272220552     -0.0089447068
 C     -0.0305946850      0.0068130424      0.0661684908
 C     -0.0264161757     -0.0009906520      0.0045682792
 C     -0.0407305804      0.0289624009      0.0098449972
 C      0.0164651321      0.0032740373      0.0365035830
 C      0.0136319439     -0.0032327650     -0.0893952830
 C     -0.0150414254      0.0497613113      0.0525602646
 C      0.0555912606     -0.0049398029     -0.0010457436
 C     -0.0318957724     -0.0184778620      0.1150629531
 C      0.0058910151     -0.0733964647     -0.0852288091
 C      0.0176071351     -0.0044236043      0.0056099835
 H      0.0432108010     -0.0067132193      0.0324876067
 H      0.0041999819      0.0183627727      0.0040041963
 H     -0.0101024565     -0.0296021860     -0.0061766107
 H     -0.0245042855     -0.0154495417     -0.0283216896
 H     -0.0099815195      0.0165364194     -0.0182181965
 H      0.0073024780     -0.0305433737     -0.0014619214
 H      0.0046349052     -0.0024201687      0.0013198296
 H     -0.0014905441     -0.0023952527     -0.0202936109
 H      0.0233530736      0.0078176289     -0.0127016539
 H      0.0002751648     -0.0211721257     -0.0189918223
 H      0.0131697747     -0.0026151587     -0.0048021607
 H      0.0097043064     -0.0339133089      0.0341523054
 H     -0.0019050795     -0.0077442545      0.0244315862
 H      0.0209315668     -0.0497990058     -0.0637281086
 H     -0.0213579693      0.0125373472     -0.0566487207
 H      0.0088435105      0.0343680915     -0.0719006515
 H      0.0147464106      0.0551809152      0.0208334591
 H      0.0197540409      0.0298362178      0.0318976977
38
# ORCA AIMD Force Step 6, t=3.00 fs, E_Pot=-772.13538550 Hartree, Unit is Hartree/Angstrom
 C     -0.0296580773     -0.0029838457     -0.0118235165
 C      0.0003597321     -0.0864149433     -0.0142003871
 C     -0.0158894014      0.0170109229      0.0025495270
 C     -0.0353457892      0.0646330388     -0.0189152488
 C      0.0245387100     -0.0200757953      0.0153787127
 C     -0.0020345409      0.0150557999      0.0110614437
 C     -0.0238189448      0.0290443127      0.0071299228
 C      0.0005131252      0.0120352291      0.0470799671
 C      0.0067280426     -0.0127112938      0.0126209622
 C     -0.0037744665      0.0356930074     -0.0156010071
 C     -0.0314666438      0.0064533970      0.0720703125
 C     -0.0289847144      0.0012650413      0.0053299979
 C     -0.0482996004      0.0335332762      0.0137052630
 C      0.0233614862     -0.0034188516      0.0416057435
 C      0.0158213381     -0.0051617794     -0.0966606781
 C     -0.0147679539      0.0545264467      0.0497423007
 C      0.0552876320     -0.0048028116     -0.0063661562
 C     -0.0335780304     -0.0115207879      0.1277195649
 C      0.0086531885     -0.0799240674     -0.1049792233
 C      0.0177914892      0.0008363420      0.0132939399
 H      0.0441242827     -0.0028760793      0.0307538961
 H      0.0042966576      0.0243332354      0.0036641508
 H     -0.0065623151     -0.0263331107     -0.0028988893
 H     -0.0206407356     -0.0174524350     -0.0251664751
 H     -0.0096283827      0.0133178819     -0.0128393998
 H      0.0102880715     -0.0370195649     -0.0011441005
 H      0.0083734818     -0.0062296111     -0.0014944945
 H     -0.0022646819     -0.0029211380     -0.0266224486
 H      0.0212545352      0.0046401468     -0.0087031867
 H      0.0038230123     -0.0238622566     -0.0242730945
 H      0.0156298727     -0.0032939054     -0.0103494541
 H      0.0077757625     -0.0318742529      0.0317161580
 H     -0.0042773210     -0.0046729193      0.0288949645
 H      0.0205269971     -0.0522108472     -0.0612889598
 H     -0.0199092070      0.0124252238     -0.0536749252
 H      0.0082837310      0.0331066556     -0.0698618818
 H      0.0133413311      0.0519170090      0.0251708248
 H      0.0196337368      0.0257972895      0.0277170185
38
# ORCA AIMD Force Step 7, t=3.50 fs, E_Pot=-772.13263230 Hartree, Unit is Hartree/Angstrom
 C     -0.0273873677     -0.0074876834     -0.0070185200
 C     -0.0025161222     -0.0959909558     -0.0198833073
 C     -0.0188551712      0.0121756650      0.0033156334
 C     -0.0467481299      0.0743864115     -0.0279259020
 C      0.0247706952     -0.0182751558      0.0115059748
 C      0.0006983524      0.0136372704      0.0119302525
 C     -0.0234509491      0.0307583002      0.0122115705
 C     -0.0041514370      0.0173934957      0.0484778953
 C      0.0163372989     -0.0136856020      0.0144079936
 C     -0.0073827966      0.0439133549     -0.0219320871
 C     -0.0317377108      0.0057923150      0.0765732474
 C     -0.0299418379      0.0030976980      0.0048867649
 C     -0.0553392714      0.0376485931      0.0166893243
 C      0.0308165439     -0.0118243281      0.0473685948
 C      0.0175771053     -0.0066697420     -0.1017159473
 C     -0.0133229025      0.0570520958      0.0432876376
 C      0.0524975096     -0.0044081620     -0.0144691483
 C     -0.0337425696     -0.0032858716      0.1344311609
 C      0.0121946238     -0.0818690227     -0.1220322519
 C      0.0184470854      0.0080820776      0.0227954478
 H      0.0429118646      0.0018812577      0.0270188599
 H      0.0047413440      0.0279526103      0.0038520209
 H     -0.0021255624     -0.0212697366      0.0010752039
 H     -0.0151389094     -0.0189795637     -0.0202143795
 H     -0.0087952693      0.0089224093     -0.0060975719
 H      0.0112240371     -0.0416777782     -0.0015193303
 H      0.0115419214     -0.0094766801     -0.0038380887
 H     -0.0027450076     -0.0032731274     -0.0303201975
 H      0.0178192457      0.0007009595     -0.0036501700
 H      0.0058467407     -0.0259208251     -0.0277875001
 H      0.0178128476     -0.0038740060     -0.0150035008
 H      0.0050638617     -0.0276776779      0.0273601269
 H     -0.0062509291     -0.0021502117      0.0326395196
 H      0.0190921218     -0.0525457287     -0.0553243742
 H     -0.0166937468      0.0122393346     -0.0471517831
 H      0.0065005943      0.0298259891     -0.0637308552
 H      0.0108646962      0.0450384711      0.0288389854
 H      0.0190588101      0.0196956204      0.0213058894
38
# ORCA AIMD Force Step 8, t=4.00 fs, E_Pot=-772.13084584 Hartree, Unit is Hartree/Angstrom
 C     -0.0231323847     -0.0127166903     -0.0004488479
 C     -0.0057212173     -0.1024789663     -0.0262275390
 C     -0.0225426133      0.0059348691      0.0036111283
 C     -0.0592003965      0.0829431166     -0.0381839675
 C      0.0245568922     -0.0153569909      0.0064444478
 C      0.0056566153      0.0103833043      0.0135384699
 C     -0.0218574739      0.0312331842      0.0169392736
 C     -0.0095806127      0.0227334098      0.0463089430
 C      0.0270120672     -0.0138918702      0.0150971733
 C     -0.0110622040      0.0519070587     -0.0277402376
 C     -0.0314071768      0.0048067834      0.0795626059
 C     -0.0289305680      0.0045972725      0.0029658071
 C     -0.0618552839      0.0412891389      0.0182999681
 C      0.0388240734     -0.0218389029      0.0537094208
 C      0.0187622981     -0.0074228416     -0.1044154937
 C     -0.0105992718      0.0572220038      0.0328837593
 C      0.0470979286     -0.0037696752     -0.0252970987
 C     -0.0321287647      0.0060545798      0.1343190408
 C      0.0165101617     -0.0789235020     -0.1357963324
 C      0.0194791167      0.0171637830      0.0339589219
 H      0.0394799886      0.0074995586      0.0212619456
 H      0.0057050373      0.0287808115      0.0047248609
 H      0.0030051659     -0.0146938142      0.0055856876
 H     -0.0082497466     -0.0200050971     -0.0136967615
 H     -0.0075485835      0.0036003201      0.0016769261
 H      0.0097580800     -0.0443777366     -0.0027189147
 H      0.0138802391     -0.0117973648     -0.0054275050
 H     -0.0028073087     -0.0033952078     -0.0308604030
 H      0.0132247771     -0.0038502310      0.0022596911
 H      0.0059885416     -0.0273703018     -0.0292252457
 H      0.0197466719     -0.0043845500     -0.0182525169
 H      0.0016434791     -0.0213886554      0.0211592379
 H     -0.0077179279     -0.0005793222      0.0355718992
 H      0.0165454712     -0.0505669312     -0.0455824703
 H     -0.0116938571      0.0120013939     -0.0370554487
 H      0.0033237008      0.0243240094     -0.0530931304
 H      0.0072865873      0.0345151004      0.0316811805
 H      0.0180289348      0.0116726543      0.0128249060
38
# ORCA AIMD Force Step 9, t=4.50 fs, E_Pot=-772.12931142 Hartree, Unit is Hartree/Angstrom
 C     -0.0170358349     -0.0184769226      0.0076224363
 C     -0.0093986150     -0.1054796067     -0.0327640714
 C     -0.0263718154     -0.0011413627      0.0034262993
 C     -0.0717869268      0.0900061062     -0.0489453014
 C      0.0237007636     -0.0117580876      0.0009376001
 C      0.0124788191      0.0056950760      0.0156912096
 C     -0.0189472284      0.0302336452      0.0206123435
 C     -0.0154507375      0.0278010672      0.0405438186
 C      0.0377615995     -0.0131677657      0.0147643192
 C     -0.0144476290      0.0587513340     -0.0325912140
 C     -0.0304025779      0.0036167658      0.0809891358
 C     -0.0261012160      0.0055754309     -0.0004846749
 C     -0.0675724454      0.0444482439      0.0184224682
 C      0.0466542368     -0.0329388152      0.0598405025
 C      0.0194404615     -0.0073200165     -0.1046002621
 C     -0.0064660148      0.0541588705      0.0186636686
 C      0.0393893947     -0.0027989527     -0.0384890712
 C     -0.0286350892      0.0160359476      0.1264573218
 C      0.0214656428     -0.0705610624     -0.1448165424
 C      0.0211687897      0.0273648375      0.0459205107
 H      0.0338355384      0.0137723619      0.0135930347
 H      0.0071265681      0.0268402309      0.0062942717
 H      0.0084938504     -0.0071334218      0.0103006534
 H     -0.0004602331     -0.0204912220     -0.0061013304
 H     -0.0059873167     -0.0022678306      0.0098029375
 H      0.0062045930     -0.0452441996     -0.0045830602
 H      0.0150759877     -0.0129399005     -0.0059634119
 H     -0.0024646409     -0.0033046324     -0.0280917819
 H      0.0079943999     -0.0085531240      0.0085290982
 H      0.0041905700     -0.0281648741     -0.0285140713
 H      0.0213784038     -0.0047989811     -0.0199112709
 H     -0.0022018748     -0.0133833185      0.0135184770
 H     -0.0086071062      0.0001726633      0.0376232867
 H      0.0128261597     -0.0459619836     -0.0318875588
 H     -0.0050460209      0.0117627453     -0.0237103326
 H     -0.0014401938      0.0166642455     -0.0380221853
 H      0.0025173292      0.0205916424      0.0334275428
 H      0.0165920523      0.0022614650      0.0028554951
38
# ORCA AIMD Force Step 10, t=5.00 fs, E_Pot=-772.12715828 Hartree, Unit is Hartree/Angstrom
 C     -0.0091019300     -0.0246090372      0.0171575983
 C     -0.0133034314     -0.1056287354     -0.0398339195
 C     -0.0303423918     -0.0085268371      0.0032592487
 C     -0.0843174338      0.0956998544     -0.0599354668
 C      0.0227246405     -0.0079639332     -0.0045604419
 C      0.0210113101     -0.0003216560      0.0184054566
 C     -0.0146877117      0.0276727137      0.0235024525
 C     -0.0219496852      0.0326813843      0.0316036488
 C      0.0485174992     -0.0121408179      0.0137567277
 C     -0.0177874528      0.0651741535     -0.0364953529
 C     -0.0287833268      0.0020902386      0.0806521094
 C     -0.0214583092      0.0064278460     -0.0051588595
 C     -0.0726983872      0.0470961435      0.0167551125
 C      0.0546504310     -0.0448309160      0.0657553630
 C      0.0194878024     -0.0061473028     -0.1022144976
 C     -0.0008771171      0.0481608391     -0.0001077268
 C      0.0293332522     -0.0016253339     -0.0536877271
 C     -0.0228607566      0.0269529159      0.1104810541
 C      0.0270525860     -0.0573233511     -0.1495385302
 C      0.0230442068      0.0382613199      0.0583035804
 H      0.0261338385      0.0206142548      0.0041903231
 H      0.0090838184      0.0223452648      0.0084802239
 H      0.0139824171      0.0008333225      0.0149817027
 H      0.0077379975     -0.0205236390      0.0020613945
 H     -0.0042836082     -0.0081065710      0.0177687331
 H      0.0006918571     -0.0445065202     -0.0070689705
 H      0.0151363675     -0.0127010517     -0.0054116218
 H     -0.0016671025     -0.0029608253     -0.0224517792
 H      0.0024780699     -0.0132335081      0.0148201078
 H      0.0006045405     -0.0284975075     -0.0258285473
 H      0.0227853827     -0.0051677842     -0.0196795165
 H     -0.0063844556     -0.0040065514      0.0047109315
 H     -0.0089475735     -0.0003726924      0.0387688241
 H      0.0078020409     -0.0384622977     -0.0138171131
 H      0.0030965699      0.0115581016     -0.0073926068
 H     -0.0079892582      0.0064997350     -0.0179234682
 H     -0.0033111176      0.0035070053      0.0340938244
 H      0.0148629424     -0.0080305671     -0.0080540793
38
# ORCA AIMD Force Step 11, t=5.50 fs, E_Pot=-772.12368939 Hartree, Unit is Hartree/Angstrom
 C      0.0001570281     -0.0307816212      0.0276548037
 C     -0.0173299515     -0.1033470584     -0.0469235261
 C     -0.0338349607     -0.0153488776      0.0033073795
 C     -0.0957217882      0.0999452008     -0.0701445723
 C      0.0216693677     -0.0046709391     -0.0091506482
 C      0.0304365419     -0.0071040261      0.0212854927
 C     -0.0092194962      0.0236044181      0.0253656373
 C     -0.0287025399      0.0372270701      0.0203639392
 C      0.0582754458     -0.0109554391      0.0123966611
 C     -0.0208607991      0.0706580380     -0.0392215390
 C     -0.0264817269      0.0003172844      0.0785716328
 C     -0.0155583119      0.0070717019     -0.0105721047
 C     -0.0770510135      0.0492218008      0.0134445477
 C      0.0621582163     -0.0566033880      0.0705914036
 C      0.0190203992     -0.0039691181     -0.0970896746
 C      0.0061395436      0.0388656311     -0.0231455376
 C      0.0175882516     -0.0002319314     -0.0697315818
 C     -0.0148599328      0.0384503790      0.0867300476
 C      0.0329880722     -0.0398836069     -0.1494542614
 C      0.0250901943      0.0485922758      0.0698178405
 H      0.0167947536      0.0277008063     -0.0064831404
 H      0.0113661227      0.0159273925      0.0110650809
 H      0.0189744132      0.0083677358      0.0191965479
 H      0.0155444317     -0.0201760679      0.0099460407
 H     -0.0026253363     -0.0132575008      0.0247225589
 H     -0.0060195202     -0.0425540327     -0.0098467474
 H      0.0140403440     -0.0110973637     -0.0037698080
 H     -0.0005440637     -0.0024159497     -0.0146941313
 H     -0.0026249164     -0.0173737530      0.0204980418
 H     -0.0042920521     -0.0284176824     -0.0215920226
 H      0.0239111285     -0.0054543503     -0.0177460587
 H     -0.0105568712      0.0059887654     -0.0045819842
 H     -0.0087555101     -0.0020637525      0.0389822557
 H      0.0015166991     -0.0279878122      0.0084618337
 H      0.0121820484      0.0114606891      0.0107528291
 H     -0.0163470929     -0.0058392799      0.0064979266
 H     -0.0100305866     -0.0158007431      0.0336105792
 H      0.0130303484     -0.0181523958     -0.0187862153
38
# ORCA AIMD Force Step 12, t=6.00 fs, E_Pot=-772.11875793 Hartree, Unit is Hartree/Angstrom
 C      0.0101169600     -0.0366314062      0.0384162267
 C     -0.0211129104     -0.0994066425     -0.0537518115
 C     -0.0364774902     -0.0207201723      0.0039805092
 C     -0.1051899972      0.1028578576     -0.0786997523
 C      0.0208147520     -0.0025519777     -0.0121433317
 C      0.0401142833     -0.0142978722      0.0240865899
 C     -0.0029061362      0.0183478764      0.0263752620
 C     -0.0354764726      0.0413487102      0.0077763675
 C      0.0664078599     -0.0100634448      0.0111447752
 C     -0.0236980866      0.0752704305     -0.0406095895
 C     -0.0235271717     -0.0017417841      0.0745932683
 C     -0.0089806112      0.0077107387     -0.0162628109
 C     -0.0805836322      0.0507830330      0.0087242571
 C      0.0689717884     -0.0672700507      0.0733708220
 C      0.0181059142     -0.0009056339     -0.0892085029
 C      0.0143373208      0.0267206747     -0.0497576097
 C      0.0049672392      0.0013605384     -0.0848672605
 C     -0.0049138318      0.0498769171      0.0567815316
 C      0.0387999463     -0.0199331320     -0.1449124478
 C      0.0269985151      0.0572239938      0.0791805701
 H      0.0064855552      0.0346812963     -0.0177523938
 H      0.0137941074      0.0082936874      0.0137699043
 H      0.0229384212      0.0145770672      0.0225301505
 H      0.0221106788     -0.0195783989      0.0166363864
 H     -0.0012097926     -0.0170215230      0.0299606610
 H     -0.0132928167     -0.0397503044     -0.0126511790
 H      0.0119827618     -0.0082883656     -0.0012447023
 H      0.0007967034     -0.0016893625     -0.0056817422
 H     -0.0066646051     -0.0205781365      0.0249802724
 H     -0.0099691858     -0.0280309689     -0.0162715760
 H      0.0247423572     -0.0056564857     -0.0142388383
 H     -0.0143714930      0.0155444970     -0.0134498402
 H     -0.0081774543     -0.0047597305      0.0382945950
 H     -0.0058218334     -0.0148563687      0.0342509612
 H      0.0213862548      0.0115092850      0.0291069170
 H     -0.0261819013     -0.0196607600      0.0337991925
 H     -0.0171677476     -0.0358244502      0.0321643497
 H      0.0113277511     -0.0269534871     -0.0281106865
38
# ORCA AIMD Force Step 13, t=6.50 fs, E_Pot=-772.11305897 Hartree, Unit is Hartree/Angstrom
 C      0.0196102256     -0.0416024585      0.0483846592
 C     -0.0244131267     -0.0945628830     -0.0599103851
 C     -0.0377625758     -0.0238156030      0.0055617195
 C     -0.1117552406      0.1045095126     -0.0845880610
 C      0.0202941977     -0.0022118752     -0.0128983400
 C      0.0492760640     -0.0214650888      0.0264439033
 C      0.0038726472      0.0122773532      0.0266724849
 C     -0.0419004077      0.0449547499     -0.0050253918
 C      0.0721777432     -0.0097315846      0.0103712224