38
Properties=species:S:1:pos:R:3:forces:R:3 #=T ORCA=T AIMD=T Position=T Step=T 0,=T t=0.0 fs,=T E_Pot=-772.15917503 Hartree,=T Unit=T is=T Angstrom=T energy=-772.15917503 pbc="F F F"
C        1.59501005       0.62773858      -0.74547496       0.00000000       0.00000000       0.00000000
C        2.38131536       1.69817192      -0.03371375       0.00000000       0.00000000       0.00000000
C        3.29355234       1.45634964       0.90665198       0.00000000       0.00000000       0.00000000
C        3.65774344       0.13708402       1.41951327       0.00000000       0.00000000       0.00000000
C        2.63442647      -0.97995530       1.56972980       0.00000000       0.00000000       0.00000000
C        3.73680629      -1.09502449       0.52557756       0.00000000       0.00000000       0.00000000
C        3.45359105      -1.04445982      -0.90811715       0.00000000       0.00000000       0.00000000
C        2.51365830      -0.30125869      -1.49077683       0.00000000       0.00000000       0.00000000
C        1.21348302      -0.83327265       1.22995782       0.00000000       0.00000000       0.00000000
C        0.69052174      -0.12886294       0.21706989       0.00000000       0.00000000       0.00000000
C       -0.77204138       0.03894672      -0.00765492       0.00000000       0.00000000       0.00000000
C       -1.22860142      -0.06034638      -1.31523890       0.00000000       0.00000000       0.00000000
C       -2.59504364       0.24988842      -1.82997139       0.00000000       0.00000000       0.00000000
C       -3.30969141       1.42791239      -1.26430035       0.00000000       0.00000000       0.00000000
C       -3.49971602       1.62175390       0.03174477       0.00000000       0.00000000       0.00000000
C       -3.02517105       0.69360204       1.09102998       0.00000000       0.00000000       0.00000000
C       -1.59414919       0.26620940       1.09983294       0.00000000       0.00000000       0.00000000
C       -3.30113157      -0.76453592       1.00714785       0.00000000       0.00000000       0.00000000
C       -3.34651042      -1.53055421      -0.15055958       0.00000000       0.00000000       0.00000000
C       -2.98797235      -1.12683371      -1.41847219       0.00000000       0.00000000       0.00000000
H        0.95346303       1.12539483      -1.47068521       0.00000000       0.00000000       0.00000000
H        2.19546478       2.72667632      -0.32576977       0.00000000       0.00000000       0.00000000
H        3.82181399       2.29798801       1.34541424       0.00000000       0.00000000       0.00000000
H        4.41108602       0.15187834       2.19796980       0.00000000       0.00000000       0.00000000
H        2.80959463      -1.59881613       2.44114291       0.00000000       0.00000000       0.00000000
H        4.53374847      -1.77550175       0.79986859       0.00000000       0.00000000       0.00000000
H        4.07180266      -1.68130977      -1.53382436       0.00000000       0.00000000       0.00000000
H        2.40015643      -0.35542077      -2.56905452       0.00000000       0.00000000       0.00000000
H        0.53354961      -1.37048500       1.88578434       0.00000000       0.00000000       0.00000000
H       -0.53146862      -0.42920786      -2.05918122       0.00000000       0.00000000       0.00000000
H       -2.57018244       0.32035670      -2.91615889       0.00000000       0.00000000       0.00000000
H       -3.67119367       2.16894207      -1.97117324       0.00000000       0.00000000       0.00000000
H       -4.01454436       2.51692727       0.36561186       0.00000000       0.00000000       0.00000000
H       -3.29968482       1.07205828       2.07216148       0.00000000       0.00000000       0.00000000
H       -1.13177340       0.20660525       2.07712609       0.00000000       0.00000000       0.00000000
H       -3.52072556      -1.26113028       1.94575436       0.00000000       0.00000000       0.00000000
H       -3.55490470      -2.58803172      -0.02222744       0.00000000       0.00000000       0.00000000
H       -2.94628164      -1.87947671      -2.19673486       0.00000000       0.00000000       0.00000000
38
Properties=species:S:1:pos:R:3:forces:R:3 #=T ORCA=T AIMD=T Position=T Step=T 1,=T t=0.5 fs,=T E_Pot=-772.15729584 Hartree,=T Unit=T is=T Angstrom=T energy=-772.15729584 pbc="F F F"
C        1.59917445       0.62615134      -0.74408827      -0.00784704       0.00329522      -0.00670720
C        2.38132045       1.70406270      -0.02646580      -0.00388664      -0.01505633      -0.00615056
C        3.29828043       1.45479775       0.90661320       0.00268514       0.00593405       0.00584086
C        3.66348876       0.13118895       1.42236297      -0.00193731       0.01282312       0.00099749
C        2.63175798      -0.97850123       1.56749169       0.00309755      -0.00729290       0.00739081
C        3.73444134      -1.09341306       0.52376296      -0.00084448       0.00314184       0.00116416
C        3.45602249      -1.04828626      -0.90986834      -0.00096169       0.00179922       0.00171663
C        2.51755494      -0.30494585      -1.49158091      -0.00267361       0.00431038       0.00668240
C        1.21012773      -0.83324377       1.22965329       0.00035825      -0.00804797       0.00981140
C        0.69263413      -0.13697405       0.21515547      -0.00256437       0.00979130      -0.00803676
C       -0.76927319       0.03626204      -0.01132574      -0.00277188       0.00153722       0.01226090
C       -1.22687705      -0.06433296      -1.31456380       0.00041476       0.00943410      -0.00037656
C       -2.58958270       0.24650181      -1.82963766      -0.00845533       0.00402521       0.00031431
C       -3.31329885       1.42602852      -1.26640563       0.00149550       0.00308072       0.00069208
C       -3.49866644       1.61962205       0.03447119       0.00170233       0.00045376      -0.01585767
C       -3.02222184       0.68993296       1.09031631      -0.00750624       0.01678664       0.02064335
C       -1.59245362       0.26371289       1.09993017       0.01463520      -0.00051643       0.01048536
C       -3.30133183      -0.76338925       1.00178449      -0.00746573      -0.01129484       0.03816154
C       -3.34659196      -1.52575110      -0.14662084      -0.00077674      -0.02105019      -0.02325112
C       -2.98540970      -1.12897551      -1.42006512      -0.00783221      -0.00845373       0.00046009
H        0.93872933       1.11355569      -1.47654467       0.01091030      -0.00295012       0.00864391
H        2.18625442       2.72298463      -0.32489925       0.00021322       0.00706436       0.00000757
H        3.82580372       2.30566317       1.34311130      -0.00307239      -0.00728885      -0.00121205
H        4.41914243       0.15861100       2.20776262      -0.00686326      -0.00351803      -0.00651843
H        2.81199968      -1.60770288       2.43622733      -0.00306898       0.00297485      -0.00423512
H        4.53731408      -1.75305815       0.80462762       0.00370293      -0.00939039       0.00086745
H        4.06796604      -1.68746007      -1.53498400       0.00231415      -0.00185850      -0.00080673
H        2.39989952      -0.35893130      -2.56322069      -0.00068014      -0.00079227      -0.00792609
H        0.52134614      -1.36742161       1.88635556       0.00440719       0.00230620      -0.00335330
H       -0.52475147      -0.41418238      -2.05142823       0.00638205      -0.00230332      -0.00842335
H       -2.58012828       0.32093965      -2.91350237       0.00327638      -0.00109848      -0.00235671
H       -3.66819421       2.17856499      -1.97938828       0.00320346      -0.00961359       0.00839117
H       -4.00369376       2.52473748       0.34783713      -0.00207245       0.00100511       0.00550928
H       -3.30156160       1.09160320       2.08391094       0.00581831      -0.01203362      -0.01956195
H       -1.12431564       0.20126790       2.08958597      -0.00728043       0.00177870      -0.01593556
H       -3.52803722      -1.26693281       1.95874736       0.00791545       0.01192785      -0.02176655
H       -3.56297961      -2.59478749      -0.04191818       0.00457938       0.01286481       0.00513323
H       -2.95388907      -1.88789900      -2.20319978       0.00105649       0.00598974       0.00728382
38
Properties=species:S:1:pos:R:3:forces:R:3 #=T ORCA=T AIMD=T Position=T Step=T 2,=T t=1.0 fs,=T E_Pot=-772.15231752 Hartree,=T Unit=T is=T Angstrom=T energy=-772.15231752 pbc="F F F"
C        1.60329807       0.62458131      -0.74273755      -0.01539309       0.00581350      -0.01221908
C        2.38130430       1.70987416      -0.01924779      -0.00712575      -0.02980237      -0.01164539
C        3.30302559       1.45327751       0.90660633       0.00511343       0.01160684       0.01075601
C        3.66922640       0.12536098       1.42521957      -0.00402577       0.02611575       0.00142964
C        2.62910507      -0.97708629       1.56529284       0.00698326      -0.01383747       0.01452491
C        3.73207058      -1.09178364       0.52195380      -0.00080967       0.00564184       0.00211967
C        3.45844990      -1.05210481      -0.91161104      -0.00188083       0.00395469       0.00326334
C        2.52143894      -0.30861132      -1.49234887      -0.00516056       0.00863283       0.01380275
C        1.20677268      -0.83325887       1.22940224       0.00130760      -0.01464255       0.01831847
C        0.69473357      -0.14503575       0.21319614      -0.00503625       0.01863169      -0.01497511
C       -0.76651875       0.03358440      -0.01493140      -0.00544721       0.00157635       0.02373233
C       -1.22514955      -0.06826999      -1.31389043      -0.00407346       0.01317437       0.00034486
C       -2.58416521       0.24313548      -1.82930205      -0.01715995       0.00862955       0.00018123
C       -3.31689995       1.42416053      -1.26850821       0.00385183       0.00586952       0.00269963
C       -3.49760701       1.61749160       0.03711232       0.00356929       0.00112918      -0.03116839
C       -3.01931217       0.68635376       1.08971511      -0.01341385       0.03174113       0.03699295
C       -1.59067718       0.26121229       1.10008476       0.02526365      -0.00119539       0.01856226
C       -3.30157300      -0.76230374       0.99662701      -0.01313074      -0.01746919       0.07052888
C       -3.34667779      -1.52106061      -0.14280719      -0.00261476      -0.04128035      -0.04469830
C       -2.98288857      -1.13116461      -1.42165635      -0.00875776      -0.01232529       0.00016901
H        0.92469877       1.10151840      -1.48184409       0.02100182      -0.00478842       0.01652068
H        2.17705328       2.71975120      -0.32402780       0.00073371       0.01389792       0.00008444
H        3.82959536       2.31286749       1.34072825      -0.00490333      -0.01344164      -0.00227385
H        4.42675590       0.16511794       2.21713585      -0.01185587      -0.00665809      -0.01261616
H        2.81420606      -1.61640038       2.43103342      -0.00497617       0.00630081      -0.00777495
H        4.54112269      -1.73121478       0.80944556       0.00784722      -0.01784132       0.00142758
H        4.06427820      -1.69373455      -1.53619678       0.00452418      -0.00375851      -0.00164613
H        2.39959819      -0.36249521      -2.55790015      -0.00139306      -0.00137798      -0.01537079
H        0.50942353      -1.36420646       1.88670867       0.00926082       0.00389491      -0.00550250
H       -0.51761522      -0.39929930      -2.04421994       0.01098725      -0.00647694      -0.01594747
H       -2.58986577       0.32145136      -2.91099800       0.00658306      -0.00193031      -0.00515394
H       -3.66498458       2.18756663      -1.98706095       0.00579271      -0.01735823       0.01541987
H       -3.99297263       2.53261712       0.33041221      -0.00338340       0.00131188       0.01072357
H       -3.30306036       1.11037425       2.09439224       0.01076332      -0.02311620      -0.03582218
H       -1.11732829       0.19604370       2.10101424      -0.01349305       0.00254532      -0.02918817
H       -3.53483704      -1.27196139       1.97032925       0.01194343       0.02031649      -0.03906421
H       -3.57076036      -2.60070876      -0.06128457       0.00655820       0.02431253       0.00970155
H       -2.96143154      -1.89593543      -2.20919358       0.00153445       0.01198445       0.01377527
38
Properties=species:S:1:pos:R:3:forces:R:3 #=T ORCA=T AIMD=T Position=T Step=T 3,=T t=1.5 fs,=T E_Pot=-772.14534307 Hartree,=T Unit=T is=T Angstrom=T energy=-772.14534307 pbc="F F F"
C        1.60734563       0.62303998      -0.74145100      -0.02177858       0.00711594      -0.01634919
C        2.38124913       1.71553406      -0.01207923      -0.00994055      -0.04304576      -0.01686707
C        3.30780808       1.45181775       0.90665829       0.00666094       0.01648618       0.01489030
C        3.67495334       0.11966436       1.42808962      -0.00709483       0.03906808       0.00109228
C        2.62648512      -0.97574425       1.56316911       0.01069249      -0.01975518       0.02068844
C        3.72969070      -1.09012015       0.52015267       0.00031612       0.00678719       0.00340407
C        3.46087182      -1.05590925      -0.91333933      -0.00253729       0.00586482       0.00453409
C        2.52530238      -0.31223680      -1.49304285      -0.00764881       0.01277848       0.01948733
C        1.20341817      -0.83335410       1.22925090       0.00272859      -0.02048348       0.02598315
C        0.69680961      -0.15301145       0.21115104      -0.00746440       0.02716014      -0.02154174
C       -0.76378867       0.03091009      -0.01841435      -0.00787964       0.00152417       0.03482960
C       -1.22344091      -0.07214272      -1.31321383      -0.00742005       0.01618677      -0.00021342
C       -2.57883089       0.23980972      -1.82896479      -0.02567877       0.01297659      -0.00051375
C       -3.32048709       1.42232096      -1.27060016       0.00693393       0.00737779       0.00544309
C       -3.49652597       1.61536312       0.03958817       0.00484224       0.00254872      -0.04518491
C       -3.01647013       0.68294114       1.08931509      -0.01790401       0.04482515       0.04899104
C       -1.58875904       0.25870022       1.10034120       0.03406479      -0.00170884       0.02388647
C       -3.30188647      -0.76131165       0.99184515      -0.01766354      -0.02104670       0.09795924
C       -3.34677809      -1.51658668      -0.13923053      -0.00421071      -0.05943276      -0.06580607
C       -2.98041037      -1.13342545      -1.42324979      -0.00974313      -0.01503493       0.00073139
H        0.91200944       1.08914523      -1.48607714       0.02968924      -0.00549149       0.02276378
H        2.16788180       2.71741727      -0.32314912       0.00134831       0.01943519       0.00037384
H        3.83307488       2.31920989       1.33819228      -0.00611117      -0.01854425      -0.00284828
H        4.43361161       0.17120374       2.22570525      -0.01578728      -0.00969908      -0.01765127
H        2.81609244      -1.62470435       2.42532248      -0.00666567       0.00910873      -0.01047198
H        4.54545030      -1.71049122       0.81436607       0.01084383      -0.02508722       0.00161097
H        4.06087798      -1.70026639      -1.53751925       0.00642690      -0.00537387      -0.00222939
H        2.39920545      -0.36615597      -2.55357099      -0.00201156      -0.00188889      -0.02145433
H        0.49808102      -1.36073109       1.88670381       0.01347611       0.00499366      -0.00705676
H       -0.50974873      -0.38480902      -2.03803690       0.01443562      -0.00984207      -0.02209207
H       -2.59919339       0.32183825      -2.90882463       0.00974692      -0.00273962      -0.00735294
H       -3.66139104       2.19545462      -1.99374368       0.00760121      -0.02369446       0.02106671
H       -3.98245087       2.54059782       0.31365187      -0.00423344       0.00093464       0.01544671
H       -3.30386052       1.12767562       2.10255930       0.01448781      -0.03247374      -0.04773267
H       -1.11120664       0.19097510       2.11056256      -0.01828740       0.00317803      -0.03940959
H       -3.54087179      -1.27567564       1.97938774       0.01496589       0.02635713      -0.05188015
H       -3.57812898      -2.60505700      -0.08005683       0.00819880       0.03357814       0.01449794
H       -2.96888888      -1.90320657      -2.21430131       0.00216918       0.01685788       0.01900607
38
Properties=species:S:1:pos:R:3:forces:R:3 #=T ORCA=T AIMD=T Position=T Step=T 4,=T t=2.0 fs,=T E_Pot=-772.13766438 Hartree,=T Unit=T is=T Angstrom=T energy=-772.13766438 pbc="F F F"
C        1.61129116       0.62153105      -0.74024851      -0.02675326       0.00726251      -0.01890899
C        2.38113929       1.72098235      -0.00497251      -0.01244279      -0.05427365      -0.02197973
C        3.31264743       1.45044207       0.90679201       0.00719953       0.02029812       0.01816361
C        3.68066582       0.11415743       1.43097789      -0.01131960       0.05145809      -0.00025931
C        2.62391256      -0.97450468       1.56114963       0.01416303      -0.02481098       0.02564215
C        3.72730243      -1.08841239       0.51836251       0.00303223       0.00629030       0.00522036
C        3.46329017      -1.05969780      -0.91505015      -0.00274161       0.00731627       0.00544337
C        2.52914039      -0.31580774      -1.49363306      -0.01024262       0.01671628       0.02311456
C        1.20006432      -0.83356191       1.22924121       0.00481288      -0.02536007       0.03250977
C        0.69885361      -0.16087238       0.20897925      -0.00973101       0.03527172      -0.02757255
C       -0.76109011       0.02823274      -0.02172141      -0.01009208       0.00137607       0.04530157
C       -1.22176564      -0.07594331      -1.31253553      -0.00896193       0.01832081      -0.00254740
C       -2.57361448       0.23654085      -1.82862890      -0.03396256       0.01697014      -0.00185148
C       -3.32405154       1.42051396      -1.27267122       0.01074539       0.00742424       0.00906123
C       -3.49541380       1.61323953       0.04182711       0.00553476       0.00476221      -0.05771163
C       -3.01371402       0.67975946       1.08918166      -0.02099467       0.05588445       0.05672223
C       -1.58664618       0.25616808       1.10072954       0.04076748      -0.00204357       0.02628997
C       -3.30229801      -0.76043059       0.98757939      -0.02098414      -0.02225577       0.12016152
C       -3.34690188      -1.51241917      -0.13599901      -0.00540709      -0.07473054      -0.08604856
C       -2.97797496      -1.13577825      -1.42484601      -0.01076164      -0.01634615       0.00231821
H        0.90120343       1.07636100      -1.48884277       0.03669075      -0.00505047       0.02717420
H        2.15875924       2.71634164      -0.32224231       0.00218237       0.02314426       0.00103873
H        3.83617044       2.32436919       1.33545964      -0.00659413      -0.02235088      -0.00285746
H        4.43946634       0.17668255       2.23315931      -0.01844905      -0.01255449      -0.02137797
H        2.81755189      -1.63244931       2.41890385      -0.00805997       0.01121265      -0.01212101
H        4.55050397      -1.69131644       0.81941266       0.01213259      -0.03074871       0.00121466
H        4.05788265      -1.70717674      -1.53899283       0.00786483      -0.00652285      -0.00240991
H        2.39867978      -0.36995559      -2.55062339      -0.00244580      -0.00228704      -0.02556948
H        0.48756957      -1.35691505       1.88623845       0.01682466       0.00547583      -0.00784161
H       -0.50090672      -0.37089924      -2.03326914       0.01607729      -0.01221706      -0.02621794
H       -2.60792470       0.32204801      -2.90712181       0.01274672      -0.00351992      -0.00881871
H       -3.65728617       2.20183002      -1.99908017       0.00857206      -0.02835400       0.02509831
H       -3.97216055       2.54867352       0.29782811      -0.00458985      -0.00025602       0.01961322
H       -3.30371869       1.14293161       2.10764634       0.01703282      -0.03996547      -0.05544518
H       -1.10625226       0.18609228       2.11757987      -0.02153886       0.00364604      -0.04634816
H       -3.54595564      -1.27768577       1.98509938       0.01696303       0.03011750      -0.06025598
H       -3.58499399      -2.60723262      -0.09796300       0.00936538       0.04014701       0.01935452
H       -2.97623644      -1.90940862      -2.21819056       0.00292089       0.02037616       0.02273940
38
Properties=species:S:1:pos:R:3:forces:R:3 #=T ORCA=T AIMD=T Position=T Step=T 5,=T t=2.5 fs,=T E_Pot=-772.13044247 Hartree,=T Unit=T is=T Angstrom=T energy=-772.13044247 pbc="F F F"
C        1.61511815       0.62005118      -0.73914112      -0.03012792       0.00633946      -0.01980953
C        2.38096043       1.72617189       0.00206442      -0.01474534      -0.06308499      -0.02709503
C        3.31756082       1.44916788       0.90702630       0.00662390       0.02288369       0.02047220
C        3.68635702       0.10889338       1.43388536      -0.01674705       0.06303877      -0.00277557
C        2.62139931      -0.97339232       1.55925635       0.01730427      -0.02883976       0.02923617
C        3.72491372      -1.08665795       0.51658819       0.00765084       0.00404952       0.00769878
C        3.46571074      -1.06347327      -0.91674334      -0.00241813       0.00819721       0.00590580
C        2.53294964      -0.31931251      -1.49410071      -0.01300836       0.02039932       0.02419378
C        1.19671290      -0.83391028       1.22940974       0.00762533      -0.02906523       0.03760828
C        0.70085885      -0.16859601       0.20664073      -0.01174288       0.04281437      -0.03285288
C       -0.75842763       0.02554382      -0.02480363      -0.01205900       0.00112002       0.05482505
C       -1.22012754      -0.07967057      -1.31186635      -0.00823416       0.01954969      -0.00689763
C       -2.56854707       0.23334170      -1.82830077      -0.04190509       0.02055916      -0.00384981
C       -3.32758251       1.41873477      -1.27470738       0.01523236       0.00591130       0.01356825
C       -3.49426334       1.61112689       0.04376553       0.00571759       0.00770648      -0.06861067
C       -3.01105338       0.67686154       1.08935836      -0.02276775       0.06483319       0.06042570
C       -1.58429464       0.25360666       1.10126483       0.04521717      -0.00219324       0.02574500
C       -3.30282757      -0.75966529       0.98394216      -0.02308514      -0.02147739       0.13689871
C       -3.34705620      -1.50863174      -0.13321633      -0.00610906      -0.08655863      -0.10467416
C       -2.97558119      -1.13823751      -1.42644092      -0.01176430      -0.01607888       0.00498747
H        0.89271796       1.06315543      -1.48985234       0.04180941      -0.00351868       0.02965409
H        2.14971414       2.71677078      -0.32126114       0.00334771       0.02463139       0.00221743
H        3.83885718       2.32810473       1.33252076      -0.00628465      -0.02468018      -0.00225204
H        4.44415724       0.18138006       2.23926958      -0.01969921      -0.01513739      -0.02361544
H        2.81849505      -1.63951684       2.41164729      -0.00908952       0.01246611      -0.01258554
H        4.55638658      -1.67401413       0.82457468       0.01136215      -0.03463235       0.00011080
H        4.05537990      -1.71456270      -1.54063443       0.00874272      -0.00709134      -0.00209613
H        2.39799052      -0.37393180      -2.54932569      -0.00261171      -0.00254119      -0.02721171
H        0.47808253      -1.35271392       1.88525731       0.01914500       0.00526782      -0.00774463
H       -0.49095093      -0.35768851      -2.03018065       0.01544995      -0.01353875      -0.02788632
H       -2.61588539       0.32202925      -2.90598313       0.01555646      -0.00426376      -0.00947718
H       -3.65259180       2.20639804      -2.00281462       0.00870606      -0.03117367       0.02738606
H       -3.96209668       2.55679015       0.28317304      -0.00448523      -0.00225431       0.02320178
H       -3.30246276       1.15568484       2.10914642       0.01847951      -0.04554895      -0.05924485
H       -1.10267005       0.18141286       2.12161848      -0.02319404       0.00392508      -0.04989955
H       -3.54996729      -1.27774211       1.98691412       0.01795638       0.03173979      -0.06439892
H       -3.59129600      -2.60680020      -0.11473224       0.00996245       0.04373693       0.02408404
H       -2.98344559      -1.91432339      -2.22062159       0.00373765       0.02235552       0.02479451
38
Properties=species:S:1:pos:R:3:forces:R:3 #=T ORCA=T AIMD=T Position=T Step=T 6,=T t=3.0 fs,=T E_Pot=-772.12448804 Hartree,=T Unit=T is=T Angstrom=T energy=-772.12448804 pbc="F F F"
C        1.61881873       0.61859102      -0.73813124      -0.03177379       0.00446726      -0.01903199
C        2.38069874       1.73106792       0.00902440      -0.01686979      -0.06935529      -0.03223254
C        3.32256078       1.44800637       0.90737543       0.00489800       0.02414940       0.02179530
C        3.69201436       0.10392182       1.43680728      -0.02337833       0.07359195      -0.00655752
C        2.61895544      -0.97242702       1.55750433       0.02005837      -0.03172390       0.03138419
C        3.72254264      -1.08486334       0.51483804       0.01419471       0.00019880       0.01089651
C        3.46814276      -1.06724227      -0.91842138      -0.00156219       0.00846777       0.00589998
C        2.53672634      -0.32274103      -1.49444026      -0.01595184       0.02375440       0.02251483
C        1.19336914      -0.83442186       1.22978656       0.01119187      -0.03146624       0.04104718
C        0.70282006      -0.17616336       0.20409788      -0.01340906       0.04960760      -0.03711080
C       -0.75580419       0.02283358      -0.02761619      -0.01378643       0.00075883       0.06322536
C       -1.21851795      -0.08332850      -1.31122822      -0.00512168       0.02001393      -0.01320560
C       -2.56365808       0.23022281      -1.82799043      -0.04947000       0.02372958      -0.00647722
C       -3.33106588       1.41696988      -1.27668980       0.02034017       0.00280782       0.01891033
C       -3.49306973       1.60903500       0.04534689       0.00552362       0.01121442      -0.07779472
C       -3.00849062       0.67429013       1.08986877      -0.02327994       0.07156782       0.06032106
C       -1.58167073       0.25100703       1.10194700       0.04728998      -0.00213690       0.02228725
C       -3.30348934      -0.75901015       0.98101974      -0.02394969      -0.01906660       0.14787976
C       -3.34724566      -1.50528107      -0.13098018      -0.00624401      -0.09443778      -0.12095106
C       -2.97322758      -1.14081020      -1.42802473      -0.01270018      -0.01415787       0.00874543
H        0.88688221       1.04958470      -1.48893138       0.04489567      -0.00095554       0.03014098
H        2.14079576       2.71881642      -0.32012482       0.00490272       0.02379006       0.00395875
H        3.84116004       2.33026313       1.32940447      -0.00517922      -0.02545425      -0.00103484
H        4.44760676       0.18513482       2.24389664      -0.01948617      -0.01737393      -0.02427717
H        2.81885294      -1.64584066       2.40349291      -0.00970760       0.01278530      -0.01181008
H        4.56307291      -1.65880176       0.82979666       0.00845793      -0.03676617      -0.00173070
H        4.05342379      -1.72248821      -1.54242997       0.00901942      -0.00701337      -0.00125379
H        2.39712329      -0.37811494      -2.54979572      -0.00245545      -0.00262848      -0.02617128
H        0.46975162      -1.34812510       1.88375928       0.02035422       0.00435846      -0.00673302
H       -0.47988228      -0.34522896      -2.02888575       0.01245373      -0.01392780      -0.02704109
H       -2.62290922       0.32173124      -2.90545309       0.01815609      -0.00496062      -0.00933093
H       -3.64727969       2.20897242      -2.00479481       0.00803072      -0.03206478       0.02786666
H       -3.95222358       2.56484213       0.26988685      -0.00401732      -0.00493930       0.02622300
H       -3.29998453       1.16558719       2.10678429       0.01889982      -0.04920338      -0.05938454
H       -1.10056927       0.17694254       2.12243245      -0.02323789       0.00399756      -0.05005100
H       -3.55284468      -1.27572168       1.98453255       0.01796446       0.03133458      -0.06447486
H       -3.59701034      -2.60350082      -0.13009647       0.00992735       0.04421155       0.02851172
H       -2.99048375      -1.91782521      -2.22145466       0.00456657       0.02269567       0.02507320
38
Properties=species:S:1:pos:R:3:forces:R:3 #=T ORCA=T AIMD=T Position=T Step=T 7,=T t=3.5 fs,=T E_Pot=-772.12014802 Hartree,=T Unit=T is=T Angstrom=T energy=-772.12014802 pbc="F F F"
C        1.62239239       0.61713655      -0.73721299      -0.03158291       0.00174723      -0.01656167
C        2.38034089       1.73564577       0.01589704      -0.01878785      -0.07324141      -0.03735223
C        3.32765229       1.44696268       0.90784895       0.00200873       0.02406792       0.02214012
C        3.69761624       0.09929077       1.43973089      -0.03115408       0.08292594      -0.01164371
C        2.61659030      -0.97162372       1.55590228       0.02239576      -0.03340529       0.03207858