38
# ORCA AIMD Position Step 0, t=0.00 fs, E_Pot=-772.18421836 Hartree, Unit is Angstrom
 C      1.6938170076      0.6989680031     -0.7718900035
 C      2.4669950110      1.7524030078      0.0009540000
 C      3.3376420149      1.4788180066      0.9860950044
 C      3.6705410164      0.1347720006      1.4902470067
 C      2.6156470117     -0.9725550044      1.5876710071
 C      3.7621240168     -1.0929260049      0.5770530026
 C      3.5355580158     -1.0238910046     -0.8786050039
 C      2.6288090118     -0.2491080011     -1.4964750067
 C      1.2092550054     -0.7801310035      1.1919040053
 C      0.7330500033     -0.0523980002      0.1527410007
 C     -0.7261490033      0.0071960000     -0.1348570006
 C     -1.1666010052      0.0615530003     -1.4146120063
 C     -2.6217480117      0.0716980003     -1.8408780082
 C     -3.3333620149      1.3050930058     -1.3170470059
 C     -3.4709300155      1.5724010070     -0.0080550000
 C     -2.9650130133      0.7394370033      1.0975140049
 C     -1.6437830074     -0.0314960001      1.0348490046
 C     -2.9679370133     -0.7958930036      1.0548870047
 C     -3.4709200155     -1.5511630069     -0.1081560005
 C     -3.3342220149     -1.1933970053     -1.3957340063
 H      1.0931490049      1.2245860055     -1.5214270068
 H      2.2984030103      2.7976020125     -0.2758100012
 H      3.8489230172      2.3115740104      1.4792620066
 H      4.3949600197      0.1290240006      2.3086710103
 H      2.7360610123     -1.6172870072      2.4619640110
 H      4.5375020203     -1.8033720081      0.8748320039
 H      4.1686650187     -1.6767240075     -1.4877210067
 H      2.5513800114     -0.2970310013     -2.5874390116
 H      0.4912910022     -1.3272320059      1.8086680081
 H     -0.4282430019      0.0556940002     -2.2204420099
 H     -2.6462230119      0.1055920005     -2.9384690132
 H     -3.7518400168      2.0021650090     -2.0495680092
 H     -3.9998040179      2.4833560111      0.2894570013
 H     -3.1754470142      1.1485240051      2.0888780094
 H     -1.1219730050     -0.0351850002      1.9920270089
 H     -3.1925870143     -1.2619270057      2.0178530090
 H     -4.0022260179     -2.4794340111      0.1242940006
 H     -3.7547650168     -1.8393050082     -2.1726360097
38
# ORCA AIMD Position Step 1, t=0.50 fs, E_Pot=-772.18154594 Hartree, Unit is Angstrom
 C      1.6979814081      0.6973807650     -0.7705033204
 C      2.4670000986      1.7582937795      0.0082019516
 C      3.3423700961      1.4772661155      0.9860562279
 C      3.6762863295      0.1288769273      1.4930967066
 C      2.6129785209     -0.9711009349      1.5854328973
 C      3.7597590703     -1.0913145792      0.5752384039
 C      3.5379894557     -1.0277174442     -0.8803561992
 C      2.6327056516     -0.2527951594     -1.4972790870
 C      1.2058997085     -0.7801021269      1.1915994781
 C      0.7351623918     -0.0605091077      0.1508265804
 C     -0.7233808155      0.0045113175     -0.1385278170
 C     -1.1648766411      0.0575664246     -1.4139369133
 C     -2.6162870720      0.0683113892     -1.8405442854
 C     -3.3369694595      1.3032091337     -1.3191522940
 C     -3.4698804281      1.5702691558     -0.0053285741
 C     -2.9620638033      0.7357679154      1.0968003340
 C     -1.6420874304     -0.0339925094      1.0349462313
 C     -2.9681372694     -0.7947463343      1.0495236458
 C     -3.4710015555     -1.5463598963     -0.1042172615
 C     -3.3316593695     -1.1955388043     -1.3973269381
 H      1.0784153056      1.2127468699     -1.5272864622
 H      2.2891926559      2.7939103302     -0.2749394839
 H      3.8529127459      2.3192491760      1.4769590678
 H      4.4030164237      0.1357566622      2.3184638352
 H      2.7384660633     -1.6261737573      2.4570484391
 H      4.5410676338     -1.7809284082      0.8795910355
 H      4.1648284011     -1.6828743132     -1.4888806526
 H      2.5511231033     -0.3005415267     -2.5816051803
 H      0.4790875302     -1.3241686191      1.8092392348
 H     -0.4215258457      0.0707194798     -2.2126890190
 H     -2.6561688541      0.1061749531     -2.9358124919
 H     -3.7488405569      2.0117879314     -2.0577830523
 H     -3.9889534122      2.4911662214      0.2716822669
 H     -3.1773237918      1.1680689255      2.1006274704
 H     -1.1145152445     -0.0405223439      2.0044868887
 H     -3.1998986753     -1.2677295337      2.0308460166
 H     -4.0103009297     -2.4861897766      0.1046032580
 H     -3.7623724392     -1.8477272977     -2.1791009379
38
# ORCA AIMD Position Step 2, t=1.00 fs, E_Pot=-772.17625065 Hartree, Unit is Angstrom
 C      1.7021055005      0.6958027893     -0.7691420119
 C      2.4670261425      1.7640860331      0.0154654121
 C      3.3470743855      1.4757392376      0.9860049799
 C      3.6820203373      0.1230397626      1.4959479878
 C      2.6103371462     -0.9696768389      1.5832246010
 C      3.7573829650     -1.0896755068      0.5734329906
 C      3.5403703436     -1.0314935154     -0.8821105983
 C      2.6366340699     -0.2564965720     -1.4980058556
 C      1.2025273982     -0.7800706883      1.1912854681
 C      0.7373012188     -0.0686100120      0.1489235497
 C     -0.7206507155      0.0018156252     -0.1421930565
 C     -1.1631325915      0.0535914407     -1.4132173273
 C     -2.6108708046      0.0649398399     -1.8402095983
 C     -3.3405729712      1.3013472915     -1.3211868083
 C     -3.4688076835      1.5681108899     -0.0027340536
 C     -2.9591439577      0.7321821572      1.0961930018
 C     -1.6403441772     -0.0364929885      1.0350902154
 C     -2.9683526469     -0.7936474475      1.0443300038
 C     -3.4711134262     -1.5416062321     -0.1004251679
 C     -3.3291244090     -1.1977232305     -1.3988623074
 H      1.0645763560      1.2004704412     -1.5322033317
 H      2.2801313545      2.7899523343     -0.2738588678
 H      3.8564189888      2.3259585254      1.4742124829
 H      4.4101945328      0.1422540069      2.3272082868
 H      2.7407115675     -1.6343371430      2.4512231730
 H      4.5443242195     -1.7585282190      0.8842221372
 H      4.1607015190     -1.6887029990     -1.4896957560
 H      2.5508970773     -0.3040614802     -2.5754941500
 H      0.4676491007     -1.3206494765      1.8092663919
 H     -0.4152685747      0.0856484582     -2.2046208060
 H     -2.6658706895      0.1066949684     -2.9326754906
 H     -3.7453256453      2.0204317071     -2.0650037135
 H     -3.9778249216      2.4983665166      0.2540239956
 H     -3.1786963019      1.1864773504      2.1103581930
 H     -1.1079423973     -0.0458526629      2.0153649940
 H     -3.2066997511     -1.2725407654      2.0418076111
 H     -4.0176654616     -2.4916634389      0.0849680445
 H     -3.7693152569     -1.8551874051     -2.1844033492
38
# ORCA AIMD Position Step 3, t=1.50 fs, E_Pot=-772.16947506 Hartree, Unit is Angstrom
 C      1.7061599092      0.6942417471     -0.7678285594
 C      2.4670553022      1.7697048948      0.0227228044
 C      3.3517732020      1.4742616447      0.9859685266
 C      3.6877362541      0.1173209721      1.4988035539
 C      2.6077390227     -0.9683125242      1.5810752077
 C      3.7549875822     -1.0879867003      0.5716368052
 C      3.5426964518     -1.0352109239     -0.8838588130
 C      2.6405864617     -0.2601949722     -1.4986145744
 C      1.1991358681     -0.7800690234      1.1910016217
 C      0.7394625048     -0.0766661786      0.1469951818
 C     -0.7179601826     -0.0009052835     -0.1458002023
 C     -1.1613682425      0.0496397521     -1.4124768466
 C     -2.6055386860      0.0615936717     -1.8398784312
 C     -3.3441629622      1.2995153418     -1.3231395623
 C     -3.4677020753      1.5659238813     -0.0003460742
 C     -2.9562797037      0.7287557077      1.0957762106
 C     -1.6385077944     -0.0390041959      1.0353217110
 C     -2.9685969117     -0.7926354549      1.0394483622
 C     -3.4712973736     -1.5369712265     -0.0968753931
 C     -3.3266334154     -1.1999756386     -1.4003382793
 H      1.0521865917      1.1876457728     -1.5357250096
 H      2.2712341678      2.7862310788     -0.2725682814
 H      3.8593679552      2.3313741286      1.4709715024
 H      4.4162508118      0.1483276391      2.3345725667
 H      2.7426979698     -1.6416103388      2.4443159639
 H      4.5475849230     -1.7367495679      0.8887965419
 H      4.1564514311     -1.6943728683     -1.4902494225
 H      2.5506682451     -0.3076312000     -2.5696312863
 H      0.4572636118     -1.3165894386      1.8086421962
 H     -0.4094443162      0.1003917667     -2.1964394473
 H     -2.6751213839      0.1071088165     -2.9292382627
 H     -3.7411312625      2.0277038667     -2.0708531197
 H     -3.9664894275      2.5049956496      0.2367929038
 H     -3.1793084827      1.2030837023      2.1170909019
 H     -1.1026646019     -0.0511730563      2.0239140360
 H     -3.2127272924     -1.2758972490      2.0497172668
 H     -4.0240242469     -2.4953071345      0.0656357249
 H     -3.7752888475     -1.8612859221     -2.1880639440
38
# ORCA AIMD Position Step 4, t=2.00 fs, E_Pot=-772.16240128 Hartree, Unit is Angstrom
 C      1.7101237940      0.6926974715     -0.7665765618
 C      2.4670716284      1.7750813077      0.0299590522
 C      3.3564834187      1.4728500379      0.9859697797
 C      3.6934237190      0.1117765176      1.5016610743
 C      2.6051975689     -0.9670312818      1.5790045818
 C      3.7525641792     -1.0862286622      0.5698483855
 C      3.5449652899     -1.0388634844     -0.8855904896
 C      2.6445570269     -0.2638748440     -1.4990666715
 C      1.1957266505     -0.7801254128      1.1907834693
 C      0.7416430258     -0.0846483431      0.1450029683
 C     -0.7153080811     -0.0036676934     -0.1492989211
 C     -1.1595828299      0.0457201858     -1.4117390356
 C     -2.6003257726      0.0582798623     -1.8395531186
 C     -3.3477272570      1.2977119839     -1.3249958768
 C     -3.4665535098      1.5637039601      0.0017677139
 C     -2.9534891220      0.7255519676      1.0956083766
 C     -1.6365418536     -0.0415347443      1.0356656044
 C     -2.9688774311     -0.7917360294      1.0349925117
 C     -3.4715900510     -1.5325120927     -0.0936608317
 C     -3.3241951586     -1.2023129926     -1.4017459206
 H      1.0417129742      1.1742292851     -1.5375075017
 H      2.2625029472      2.7832294012     -0.2710727574
 H      3.8617397205      2.3352591688      1.4672314484
 H      4.4210315868      0.1537974064      2.3403253282
 H      2.7443403972     -1.6478922058      2.4362354916
 H      4.5511503621     -1.7161246778      0.8933842976
 H      4.1522521476     -1.7000641941     -1.4906382332
 H      2.5503994120     -0.3112928911     -2.5645275369
 H      0.4481435845     -1.3119493236      1.8073151991
 H     -0.4040160413      0.1148739856     -2.1883451367
 H     -2.6837289277      0.1073767016     -2.9256952701
 H     -3.7361513441      2.0333104113     -2.0750581305
 H     -3.9550101068      2.5111060056      0.2202768025
 H     -3.1789685902      1.2173531138      2.1201462996
 H     -1.0989796547     -0.0564827247      2.0295924599
 H     -3.2177863274     -1.2774751116      2.0538469144
 H     -4.0291551649     -2.4966974494      0.0468700794
 H     -3.7800600179     -1.8657345546     -2.1897396015
38
# ORCA AIMD Position Step 5, t=2.50 fs, E_Pot=-772.15600970 Hartree, Unit is Angstrom
 C      1.7139848786      0.6911624610     -0.7653904078
 C      2.4670605997      1.7801540810      0.0371630590
 C      3.3612188292      1.4715133739      0.9860268729
 C      3.6990669440      0.1064585942      1.5045116674
 C      2.6027238409     -0.9658496659      1.5770235286
 C      3.7501074102     -1.0843873552      0.5680668772
 C      3.5471763451     -1.0424470484     -0.8872948017
 C      2.6485407979     -0.2675218161     -1.4993297576
 C      1.1923063265     -0.7802632648      1.1906614427
 C      0.7438398622     -0.0925312410      0.1429082269
 C     -0.7126914880     -0.0064892356     -0.1526408543
 C     -1.1577752596      0.0418397842     -1.4110274771
 C     -2.5952639264      0.0550027847     -1.8392347696
 C     -3.3512502539      1.2959265695     -1.3267366056
 C     -3.4653519196      1.5614461802      0.0035465954
 C     -2.9507832684      0.7226224088      1.0957242843
 C     -1.6344196271     -0.0440943454      1.0361305355
 C     -2.9691957952     -0.7909629913      1.0310501300
 C     -3.4720217150     -1.5282730986     -0.0908706404
 C     -3.3218110249     -1.2047428405     -1.4030690402
 H      1.0335247720      1.1602487724     -1.5373244410
 H      2.2539366957      2.7813678298     -0.2693700831
 H      3.8635693164      2.3374728756      1.4630359585
 H      4.4244756871      0.1584937836      2.3443398764
 H      2.7455708930     -1.6531509829      2.4269762030
 H      4.5552665094     -1.6971133272      0.8980366267
 H      4.1482733209     -1.7059607815     -1.4909605633
 H      2.5500539913     -0.3150874795     -2.5606312840
 H      0.4404229487     -1.3067386843      1.8052935804
 H     -0.3989448989      0.1290298187     -2.1805304713
 H     -2.6915152234      0.1074621707     -2.9222442144
 H     -3.7303382522      2.0370616459     -2.0774539772
 H     -3.9434403386      2.5167530835      0.2047408662
 H     -3.1775433925      1.2288757896      2.1191159066
 H     -1.0970730139     -0.0617833896      2.0320646611
 H     -3.2217439396     -1.2770764343      2.0537365263
 H     -4.0329179066     -2.4955504735      0.0289490807
 H     -3.7834707131     -1.8683586903     -2.1892259650
38
# ORCA AIMD Position Step 6, t=3.00 fs, E_Pot=-772.15092201 Hartree, Unit is Angstrom
 C      1.7177382050      0.6896231983     -0.7642655728
 C      2.4670081280      1.7848700603      0.0443229553
 C      3.3659879420      1.4702531703      0.9861535010
 C      3.7046422423      0.1014178816      1.5073384096
 C      2.6003276963     -0.9647779437      1.5751348750
 C      3.7476196381     -1.0824571760      0.5662939800
 C      3.5493315108     -1.0459595003     -0.8889605152
 C      2.6525310285     -0.2711208286     -1.4993809798
 C      1.1888886478     -0.7805010107      1.1906605188
 C      0.7460502557     -0.1002896354      0.1406726840
 C     -0.7101072359     -0.0093877488     -0.1557787692
 C     -1.1559443096      0.0380055813     -1.4103669278
 C     -2.5903842009      0.0517657876     -1.8389238695
 C     -3.3547112041      1.2941396551     -1.3283371657
 C     -3.4640877515      1.5591460595      0.0049355854
 C     -2.9481676394      0.7200082523      1.0961372678
 C     -1.6321253416     -0.0466927419      1.0367090921
 C     -2.9695482449     -0.7903200568      1.0276857417
 C     -3.4726151298     -1.5242863536     -0.0885907178
 C     -3.3194758316     -1.2072621961     -1.4042834203
 H      1.0278949951      1.1458034284     -1.5350650842
 H      2.2455460195      2.7809658725     -0.2674383071
 H      3.8649463972      2.3379721230      1.4584792462
 H      4.4266141350      0.1622582504      2.3465949508
 H      2.7463393798     -1.6574242981      2.4166226720
 H      4.5600853230     -1.6800876686      0.9027681956
 H      4.1446704503     -1.7122331432     -1.4913042704
 H      2.5496018212     -0.3190509764     -2.5582878589
 H      0.4341520946     -1.3010226427      1.8026521045
 H     -0.3942005388      0.1427947574     -2.1731740766
 H     -2.6983122103      0.1073313035     -2.9190759979
 H     -3.7237025633      2.0388713449     -2.0779826288
 H     -3.9318265907      2.5219840252      0.1904326879
 H     -3.1749521961      1.2373556644      2.1138331438
 H     -1.0970200004     -0.0670780153      2.0311979754
 H     -3.2245229277     -1.2746174677      2.0491724850
 H     -4.0352557922     -2.4917277218      0.0121656311
 H     -3.7854384254     -1.8690963783     -2.1864563167
38
# ORCA AIMD Position Step 7, t=3.50 fs, E_Pot=-772.14730780 Hartree, Unit is Angstrom
 C      1.7213855674      0.6880609514     -0.7631887549
 C      2.4669003223      1.7891858046      0.0514230883
 C      3.3707919818      1.4690639525      0.9863584219
 C      3.7101159024      0.0967040854      1.5101147672
 C      2.5980182968     -0.9638201267      1.5733342114
 C      3.7451143700     -1.0804425344      0.5645365158
 C      3.5514345182     -1.0493997710     -0.8905766538
 C      2.6565179227     -0.2746556094     -1.4992113132
 C      1.1854952825     -0.7808510233      1.1907988398
 C      0.7482700766     -0.1078971332      0.1382620882
 C     -0.7075525594     -0.0123799277     -0.1586661294
 C     -1.1540885503      0.0342263211     -1.4097822845
 C     -2.5857186427      0.0485722694     -1.8386217112
 C     -3.3580834924      1.2923234923     -1.3297674624
 C     -3.4627525871      1.5568011043      0.0058863281
 C     -2.9456435503      0.7177405806      1.0968398953
 C     -1.6296551510     -0.0493384082      1.0373768538
 C     -2.9699261358     -0.7898015956      1.0249418287
 C     -3.4733843178     -1.5205715252     -0.0869011897
 C     -3.3171784343     -1.2098563183     -1.4053577988
 H      1.0249855161      1.1310706759     -1.5307474413
 H      2.2373643256      2.7822082963     -0.2652253600
 H      3.8660127203      2.3368124481      1.4537055150
 H      4.4275684574      0.1649467271      2.3471745821
 H      2.7466157539     -1.6608190855      2.4053507209
 H      4.5656323257     -1.6653205610      0.9075424762
 H      4.1415739027     -1.7190234642     -1.4917352859
 H      2.5490239440     -0.3232103814     -2.5576915699
 H      0.4293046803     -1.2949178385      1.7995279308
 H     -0.3897649854      0.1561013916     -2.1664403617
 H     -2.7039607659      0.1069530337     -2.9163649222
 H     -3.7163135944      2.0387632253     -2.0766981585
 H     -3.9202097077      2.5268309529      0.1775839745
 H     -3.1711658563      1.2426102972      2.1043646049
 H     -1.0987824626     -0.0723705187      2.0270677328
 H     -3.2261001415     -1.2701259519      2.0401830806
 H     -4.0362042702     -2.4852509104     -0.0031748683
 H     -3.7859603536     -1.8680011062     -2.1815053341
38
# ORCA AIMD Position Step 8, t=4.00 fs, E_Pot=-772.14487069 Hartree, Unit is Angstrom
 C      1.7249349110      0.6864531418     -0.7621381624
 C      2.4667228278      1.7930673190      0.0584405601
 C      3.3756233425      1.4679338880      0.9866458878
 C      3.7154429803      0.0923668993      1.5128038642
 C      2.5958050159     -0.9629746474      1.5716112249
 C      3.7426182638     -1.0783590478      0.5628071325
 C      3.5534916857     -1.0527684294     -0.8921324398
 C      2.6604862959     -0.2781070951     -1.4988274282
 C      1.1821572636     -0.7813196708      1.1910876530
 C      0.7504940389     -0.1153231957      0.1356467558
 C     -0.7050268380     -0.0154800524     -0.1612574934
 C     -1.1522070072      0.0305137462     -1.4092995151
 C     -2.5813012454      0.0454270866     -1.8383308235
 C     -3.3613334880      1.2904426464     -1.3309916107
 C     -3.4613396620      1.5544119082      0.0063568560
 C     -2.9432086589      0.7158401728      1.0978028466
 C     -1.6270186207     -0.0520376036      1.0380920349
 C     -2.9703159356     -0.7893933117      1.0228367461
 C     -3.4743333405     -1.5171361668     -0.0858748188
 C     -3.3149021166     -1.2124974522     -1.4062532214
 H      1.0248419566      1.1163045613     -1.5245195215
 H      2.2294578807      2.7851253229     -0.2626434258
 H      3.8669588952      2.3341472534      1.4489076179
 H      4.4275505182      0.1664329577      2.3462701383
 H      2.7463905998     -1.6635085986      2.3934265156
 H      4.5717898336     -1.6529842852      0.9122642130
 H      4.1390795580     -1.7264289459     -1.4922868885
 H      2.5483174834     -0.3275804463     -2.5588656067
 H      0.4257720403     -1.2885968071      1.7961249863
 H     -0.3856404098      0.1688718689     -2.1604717113
 H     -2.7083100604      0.1062984862     -2.9142560892
 H     -3.7082993178      2.0368725812     -2.0737668729
 H     -3.9086287251      2.5313033262      0.1664116450
 H     -3.1662107904      1.2445819438      2.0910230150
 H     -1.1022029516     -0.0776651904      2.0199693506
 H     -3.2265112589     -1.2637496101      2.0270588157
 H     -4.0358920596     -2.4763066070     -0.0167589825
 H     -3.7851193337     -1.8652479470     -2.1745961363
38
# ORCA AIMD Position Step 9, t=4.50 fs, E_Pot=-772.14292090 Hartree, Unit is Angstrom
 C      1.7284013880      0.6847736862     -0.7610831900
 C      2.4664610188      1.7964917408      0.0653462240
 C      3.3804663241      1.4668451990      0.9870156691
 C      3.7205689646      0.0884537161      1.5153594809
 C      2.5936968038     -0.9622345087      1.5699504320
 C      3.7401701491     -1.0762321145      0.5611242041
 C      3.5555121097     -1.0560682787     -0.8936186247
 C      2.6644164183     -0.2814545896     -1.4982526619
 C      1.1789133565     -0.7819068021      1.1915301606
 C      0.7527155588     -0.1225354207      0.1328039886
 C     -0.7025308959     -0.0186998151     -0.1635104162
 C     -1.1502983418      0.0268823093     -1.4089440530
 C     -2.5771670068      0.0423360201     -1.8380556608
 C     -3.3644219273      1.2884544844     -1.3319696115
 C     -3.4598438248      1.5519822209      0.0063139252
 C     -2.9408562354      0.7143143786      1.0989731638
 C     -1.6242393725     -0.0547941845      1.0387947922
 C     -2.9706989618     -0.7890709647      1.0213608667
 C     -3.4754552590     -1.5139736413     -0.0855728076
 C     -3.3126244668     -1.2151453683     -1.4069251495
 H      1.0273760501      1.1018324191     -1.5166690806
 H      2.2219264180      2.7895883898     -0.2595685119
 H      3.8680180451      2.3302233444      1.4443200705
 H      4.4268560447      0.1666144916      2.3441750606
 H      2.7456764523     -1.6657264164      2.3811938455
 H      4.5783036629     -1.6431537130      0.9167834911
 H      4.1372398464     -1.7344920360     -1.4929524168
 H      2.5474979330     -0.3321625261     -2.5616504449
 H      0.4233711183     -1.2822777327      1.7927036400
 H     -0.3818484122      0.1810207717     -2.1553848392
 H     -2.7112222998      0.1053416839     -2.9128573785
 H     -3.6998418039      2.0334497039     -2.0694689033
 H     -3.8971201738      2.5353891252      0.1571103443
 H     -3.1601749436      1.2433609413      2.0743893482
 H     -1.1069973214     -0.0829687667      2.0104311853
 H     -3.2258602394     -1.2557698465      2.0103810282
 H     -4.0345499911     -2.4652584967     -0.0282790504
 H     -3.7830878703     -1.8611348595     -2.1661008050
38
# ORCA AIMD Position Step 10, t=5.00 fs, E_Pot=-772.14056467 Hartree, Unit is Angstrom
 C      1.7318092472      0.6829932088     -0.7599842113
 C      2.4661004213      1.7994478602      0.0721082111
 C      3.3852997114      1.4657749826      0.9874637614
 C      3.7254337430      0.0850066033      1.5177286039
 C      2.5917014839     -0.9615880079      1.5683320777
 C      3.7378176914     -1.0740941796      0.5595100635
 C      3.5575085757     -1.0593061216     -0.8950284132
 C      2.6682858582     -0.2846774612     -1.4975251149
 C      1.1758074044     -0.7826063394      1.1921217340
 C      0.7549279683     -0.1295031242      0.1297179970
 C     -0.7000663081     -0.0220491727     -0.1653881757
 C     -1.1483601661      0.0233475502     -1.4087398762
 C     -2.5733492614      0.0393046630     -1.8378027152
 C     -3.3673061520      1.2863095016     -1.3326593250
 C     -3.4582609752      1.5495181040      0.0057344149
 C     -2.9385735763      0.7131538295      1.1002720151
 C     -1.6213541578     -0.0576104916      1.0394079014
 C     -2.9710511160     -0.7887993818      1.0204711846
 C     -3.4767320521     -1.5110613578     -0.0860412108
 C     -3.3103167630     -1.2177491569     -1.4073252399
 H      1.0323584369      1.0880417028     -1.5076207674
 H      2.2148969931      2.7953272876     -0.2558460691
 H      3.8694552065      2.3253659001      1.4402064613
 H      4.4258516765      0.1654167083      2.3412715454
 H      2.7445062164     -1.6677536315      2.3690503872
 H      4.5848092121     -1.6358163586      0.9209090831
 H      4.1360592525     -1.7431972516     -1.4936827717
 H      2.5465987329     -0.3369458542     -2.5657235174
 H      0.4218525932     -1.2762123115      1.7895683370
 H     -0.3784283293      0.1924600360     -2.1512646920
 H     -2.7125778136      0.1040591795     -2.9122305787
 H     -3.6911666826      2.0288526730     -2.0641889458
 H     -3.8857143893      2.5390556972      0.1498428854
 H     -3.1532137610      1.2392137394      2.0553379689
 H     -1.1127548811     -0.0882938242      1.9992148305
 H     -3.2243309486     -1.2466158003      1.9910514590
 H     -4.0325095658     -2.4526402260     -0.0374502493
 H     -3.7801281248     -1.8560783953     -2.1565330744
38
# ORCA AIMD Position Step 11, t=5.50 fs, E_Pot=-772.13700373 Hartree, Unit is Angstrom
 C      1.7351935602      0.6810789633     -0.7587927599
 C      2.4656274312      1.8019354048      0.0786972472
 C      3.3901008042      1.4646966399      0.9879836392
 C      3.7299769215      0.0820594775      1.5198551762
 C      2.5898248144     -0.9610201200      1.5667334719
 C      3.7356125325     -1.0719809859      0.5579884322
 C      3.5594981204     -1.0624943171     -0.8963583212
 C      2.6720725557     -0.2877574993     -1.4966936663
 C      1.1728844119     -0.7834075804      1.1928509145
 C      0.7571259087     -0.1362021287      0.1263791327
 C     -0.6976340844     -0.0255380218     -0.1668622759
 C     -1.1463880231      0.0199238740     -1.4087082887
 C     -2.5698766922      0.0363367215     -1.8375803699
 C     -3.3699431263      1.2839519475     -1.3330192384
 C     -3.4565870293      1.5470264249      0.0046060666
 C     -2.9363401625      0.7123294355      1.1015934770
 C     -1.6184102013     -0.0604888623      1.0398391185
 C     -2.9713426220     -0.7885315113      1.0200878221
 C     -3.4781357767     -1.5083599638     -0.0873087460
 C     -3.3079436903     -1.2202506219     -1.4074041694
 H      1.0394233347      1.0753619307     -1.4979225357
 H      2.2085117432      2.8019665496     -0.2513011423
 H      3.8715520179      2.3199511577      1.4368416240
 H      4.4249516317      0.1627927552      2.3380036855
 H      2.7429287441     -1.6698977790      2.3574129083
 H      4.5908733077     -1.6308910673      0.9244286955
 H      4.1354953310     -1.7524765547     -1.4943892987
 H      2.5456676062     -0.3419109224     -2.5706405775
 H      0.4209209481     -1.2706660582      1.7870464237
 H     -0.3754326798      0.2031060989     -2.1481620929
 H     -2.7122787946      0.1024293337     -2.9123878373
 H     -3.6825261364      2.0235270562     -2.0583943060
 H     -3.8744308425      2.5422542215      0.1447323912
 H     -3.1455523749      1.2326042763      2.0350490026
 H     -1.1189527479     -0.0936626903      1.9872894909
 H     -3.2221955063     -1.2368703773      1.9703029570
 H     -4.0301935986     -2.4391320637     -0.0440256063
 H     -3.7765808680     -1.8505945937     -2.1465232176
38
# ORCA AIMD Position Step 12, t=6.00 fs, E_Pot=-772.13190420 Hartree, Unit is Angstrom
 C      1.7386007613      0.6789948847     -0.7574525044
 C      2.4650300585      1.8039625238      0.0850917064
 C      3.3948496599      1.4635820474      0.9885680122
 C      3.7341430621      0.0796367883      1.5216842517
 C      2.5880700610     -0.9605146587      1.5651309216
 C      3.7336054407     -1.0699279677      0.5565818223
 C      3.5615020617     -1.0656515923     -0.8976084462
 C      2.6757578730     -0.2906808958     -1.4958127512
 C      1.1701865217     -0.7842972279      1.1937013640
 C      0.7593065785     -0.1426185851      0.1227823026
 C     -0.6952334297     -0.0291781395     -0.1679138906
 C     -1.1443745435      0.0166225792     -1.4088670460
 C     -2.5667711441      0.0334325569     -1.8373985451
 C     -3.3722921855      1.2813210693     -1.3330114681
 C     -3.4548166971      1.5445132802      0.0029269917
 C     -2.9341264782      0.7117913892      1.1028052484
 C     -1.6154609052     -0.0634333278      1.0399858396
 C     -2.9715381093     -0.7882085739      1.0200946491
 C     -3.4796310918     -1.5058148829     -0.0893868728
 C     -3.3054639797     -1.2225887511     -1.4071151731
 H      1.0480911287      1.0642442132     -1.4882181023
 H      2.2029142294      2.8090715024     -0.2457499169
 H      3.8745883445      2.3143691628      1.4344916030
 H      4.4245850734      0.1587180041      2.3348381724
 H      2.7410016027     -1.6724650134      2.3466778197
 H      4.5960397775     -1.6282529725      0.9271301223
 H      4.1354658949     -1.7622216001     -1.4949515005
 H      2.5447608726     -0.3470337813     -2.5758899185
 H      0.4202638550     -1.2658957981      1.7854625516
 H     -0.3729217680      0.2128853368     -2.1460958679
 H     -2.7102496313      0.1004309752     -2.9132937227
 H     -3.6741777346      2.0179710523     -2.0525995713
 H     -3.8632744609      2.5449243238      0.1418598424
 H     -3.1374811565      1.2241973424      2.0149958954
 H     -1.1249885608     -0.0991100057      1.9757728800
 H     -3.2198139908     -1.2272609290      1.9496755994
 H     -4.0280954030     -2.4255176107     -0.0478035238
 H     -3.7728412754     -1.8452636764     -2.1367743546
38
# ORCA AIMD Position Step 13, t=6.50 fs, E_Pot=-772.12572288 Hartree, Unit is Angstrom
 C      1.7420872716      0.6767021210     -0.7559013930
 C      2.4642985739      1.8055418822      0.0912811190
 C      3.3995326636      1.4624043395      0.9892108889
 C      3.7378858786      0.0777541010      1.5231659185
 C      2.5864382606     -0.9600570177      1.5635021230
 C      3.7318426363     -1.0679676093      0.5553095257
 C      3.5635454363     -1.0688028645     -0.8987820636
 C      2.6793288717     -0.2934393592     -1.4949371664
 C      1.1677496418     -0.7852618120      1.1946544583
 C      0.7614704861     -0.1487508534      0.1189251542