38
# ORCA AIMD Force Step 0, t=0.00 fs, E_Pot=-772.18421836 Hartree, Unit is Hartree/Angstrom
 C      0.0000000000      0.0000000000      0.0000000000
 C      0.0000000000      0.0000000000      0.0000000000
 C      0.0000000000      0.0000000000      0.0000000000
 C      0.0000000000      0.0000000000      0.0000000000
 C      0.0000000000      0.0000000000      0.0000000000
 C      0.0000000000      0.0000000000      0.0000000000
 C      0.0000000000      0.0000000000      0.0000000000
 C      0.0000000000      0.0000000000      0.0000000000
 C      0.0000000000      0.0000000000      0.0000000000
 C      0.0000000000      0.0000000000      0.0000000000
 C      0.0000000000      0.0000000000      0.0000000000
 C      0.0000000000      0.0000000000      0.0000000000
 C      0.0000000000      0.0000000000      0.0000000000
 C      0.0000000000      0.0000000000      0.0000000000
 C      0.0000000000      0.0000000000      0.0000000000
 C      0.0000000000      0.0000000000      0.0000000000
 C      0.0000000000      0.0000000000      0.0000000000
 C      0.0000000000      0.0000000000      0.0000000000
 C      0.0000000000      0.0000000000      0.0000000000
 C      0.0000000000      0.0000000000      0.0000000000
 H      0.0000000000      0.0000000000      0.0000000000
 H      0.0000000000      0.0000000000      0.0000000000
 H      0.0000000000      0.0000000000      0.0000000000
 H      0.0000000000      0.0000000000      0.0000000000
 H      0.0000000000      0.0000000000      0.0000000000
 H      0.0000000000      0.0000000000      0.0000000000
 H      0.0000000000      0.0000000000      0.0000000000
 H      0.0000000000      0.0000000000      0.0000000000
 H      0.0000000000      0.0000000000      0.0000000000
 H      0.0000000000      0.0000000000      0.0000000000
 H      0.0000000000      0.0000000000      0.0000000000
 H      0.0000000000      0.0000000000      0.0000000000
 H      0.0000000000      0.0000000000      0.0000000000
 H      0.0000000000      0.0000000000      0.0000000000
 H      0.0000000000      0.0000000000      0.0000000000
 H      0.0000000000      0.0000000000      0.0000000000
 H      0.0000000000      0.0000000000      0.0000000000
 H      0.0000000000      0.0000000000      0.0000000000
38
# ORCA AIMD Force Step 1, t=0.50 fs, E_Pot=-772.18154594 Hartree, Unit is Hartree/Angstrom
 C     -0.0078319138      0.0018690531     -0.0047944445
 C      0.0038330960     -0.0186704885      0.0020396753
 C     -0.0048725398      0.0047465237     -0.0022771788
 C     -0.0027002193      0.0112420816     -0.0000242518
 C      0.0052540848     -0.0056431882      0.0057001455
 C     -0.0017811204      0.0048802515      0.0018799771
 C     -0.0095152213      0.0096351415     -0.0003934223
 C      0.0053846639     -0.0022019512      0.0142314651
 C     -0.0027431688      0.0004654994     -0.0017012299
 C      0.0046041065      0.0027589247      0.0022941633
 C     -0.0072721357     -0.0017186858      0.0014240857
 C      0.0034114620      0.0025591451      0.0080650361
 C     -0.0087729468      0.0031279410      0.0001396788
 C      0.0011163585      0.0042372992      0.0131786194
 C      0.0041207630     -0.0045976209     -0.0244300435
 C     -0.0056962357      0.0156475691      0.0195315778
 C      0.0085351043     -0.0004515390      0.0085428627
 C     -0.0027441903     -0.0088672242      0.0316372084
 C     -0.0055395832     -0.0095739385     -0.0272598931
 C     -0.0053464692     -0.0075623676      0.0107054337
 H      0.0138726407     -0.0066042047      0.0145251043
 H      0.0023733699     -0.0040544780      0.0032174912
 H     -0.0074595272     -0.0148985098     -0.0067897903
 H     -0.0135583651     -0.0036748546     -0.0161855162
 H     -0.0024716395      0.0111874665     -0.0139206456
 H     -0.0047772552     -0.0008736890     -0.0020079800
 H     -0.0044208449      0.0049944415      0.0053002778
 H      0.0004764878     -0.0001123317      0.0042018159
 H      0.0118579552      0.0069686799     -0.0083580730
 H     -0.0071223860     -0.0016202648      0.0047678426
 H      0.0038379358     -0.0009716244      0.0073520158
 H      0.0078857499     -0.0151211513      0.0153420494
 H      0.0041660251     -0.0094358048      0.0019521139
 H      0.0077590685     -0.0176284529     -0.0311010654
 H     -0.0136544455      0.0001571301     -0.0243991566
 H      0.0079062444      0.0152724042     -0.0313071316
 H      0.0109806279      0.0197458000      0.0010343208
 H      0.0102735512      0.0148496139      0.0179071719
38
# ORCA AIMD Force Step 2, t=1.00 fs, E_Pot=-772.17625065 Hartree, Unit is Hartree/Angstrom
 C     -0.0143778974      0.0037229350     -0.0092891082
 C      0.0005591719     -0.0339983059     -0.0039982189
 C     -0.0028715163      0.0096161653      0.0027246949
 C     -0.0055875536      0.0239594252     -0.0003508455
 C      0.0089565027     -0.0114938934      0.0116453027
 C     -0.0025786894      0.0084390103      0.0024048487
 C     -0.0109602204      0.0122249206      0.0018282376
 C      0.0028196265      0.0020228706      0.0218675021
 C     -0.0021718829     -0.0054548822      0.0056385384
 C      0.0032545964      0.0113997408     -0.0038744786
 C     -0.0083183819     -0.0035371231      0.0120768328
 C      0.0030168374      0.0058392033      0.0035331489
 C     -0.0175359447      0.0059804680     -0.0007765427
 C      0.0039047362      0.0062046263      0.0157542605
 C      0.0055804920     -0.0043954649     -0.0387858202
 C     -0.0113229868      0.0305464067      0.0350707178
 C      0.0163298440     -0.0009664832      0.0159390270
 C     -0.0051946641     -0.0163205483      0.0590965874
 C     -0.0131304782     -0.0235804359     -0.0458019554
 C     -0.0090450406     -0.0115576117      0.0114680079
 H      0.0226929899     -0.0080004157      0.0215668876
 H      0.0028200481      0.0037638031      0.0031849529
 H     -0.0086658694     -0.0200705116     -0.0074925324
 H     -0.0174489000     -0.0067167905     -0.0214642400
 H     -0.0040496765      0.0139283415     -0.0164029632
 H     -0.0000455372     -0.0102823491     -0.0010243373
 H     -0.0017522687      0.0026308670      0.0040377490
 H     -0.0000355034     -0.0006459365     -0.0040109539
 H      0.0165343191      0.0081800687     -0.0099929034
 H     -0.0068514421     -0.0033465756      0.0014663816
 H      0.0072445195     -0.0016460025      0.0045008748
 H      0.0103060141     -0.0213296354      0.0212765892
 H      0.0028040413     -0.0090021880      0.0071425280
 H      0.0117095511     -0.0282589484     -0.0463154625
 H     -0.0200859818      0.0003301873     -0.0360918157
 H      0.0120933307      0.0224769780     -0.0471837837
 H      0.0156743584      0.0282550869      0.0053019288
 H      0.0151000568      0.0211363280      0.0253630749
38
# ORCA AIMD Force Step 3, t=1.50 fs, E_Pot=-772.16947506 Hartree, Unit is Hartree/Angstrom
 C     -0.0197959339      0.0043193990     -0.0122793743
 C     -0.0023667161     -0.0487962274     -0.0097094564
 C     -0.0017052616      0.0132389804      0.0069140953
 C     -0.0098014343      0.0364402656     -0.0019444854
 C      0.0124409908     -0.0162674104      0.0161140734
 C     -0.0031856419      0.0112797590      0.0028654838
 C     -0.0123313941      0.0148362644      0.0044285459
 C      0.0001329619      0.0063635960      0.0290876366
 C     -0.0004962590     -0.0106012734      0.0122236230
 C      0.0017702736      0.0200043243     -0.0101032708
 C     -0.0091853876     -0.0053847912      0.0227043484
 C      0.0024240335      0.0090497914     -0.0010842187
 C     -0.0260624611      0.0086049667     -0.0013358580
 C      0.0075849841      0.0066968441      0.0191823184
 C      0.0069524067     -0.0042468696     -0.0519881841
 C     -0.0157599187      0.0434251908      0.0457922096
 C      0.0221756626     -0.0015076206      0.0203357995
 C     -0.0064227707     -0.0213688473      0.0816779865
 C     -0.0197044101     -0.0358472743     -0.0640663530
 C     -0.0116365384     -0.0136947945      0.0136657655
 H      0.0301995604     -0.0082012092      0.0268881576
 H      0.0031448916      0.0112779543      0.0030530217
 H     -0.0090440454     -0.0238194725     -0.0074282263
 H     -0.0199544739     -0.0096639563     -0.0251917716
 H     -0.0054051616      0.0156822924     -0.0175110409
 H      0.0044490055     -0.0191523394     -0.0001048059
 H      0.0010659399      0.0000546915      0.0025635719
 H     -0.0005974668     -0.0011678658     -0.0120286238
 H      0.0200933928      0.0086140676     -0.0107269821
 H     -0.0064616724     -0.0049978890     -0.0018871983
 H      0.0104808165     -0.0022646164      0.0013881859
 H      0.0117532746     -0.0260144748      0.0255930980
 H      0.0014372277     -0.0083977023      0.0121213833
 H      0.0146302588     -0.0369326695     -0.0568037113
 H     -0.0247645660      0.0005241818     -0.0445653959
 H      0.0152483262      0.0274812619     -0.0584569601
 H      0.0192449848      0.0347755473      0.0099908086
 H      0.0188290010      0.0256940538      0.0306632662
38
# ORCA AIMD Force Step 4, t=2.00 fs, E_Pot=-772.16240128 Hartree, Unit is Hartree/Angstrom
 C     -0.0238372864      0.0036732087     -0.0136146922
 C     -0.0050090793     -0.0622743369     -0.0151745902
 C     -0.0014566015      0.0154789630      0.0101806659
 C     -0.0153730147      0.0484296709     -0.0049338809
 C      0.0156143169     -0.0198124938      0.0189932486
 C     -0.0029711735      0.0129255464      0.0035576474
 C     -0.0134510531      0.0172733184      0.0072143313
 C     -0.0026924253      0.0107262693      0.0350464179
 C      0.0023541732     -0.0147820713      0.0178085221
 C      0.0001740285      0.0283547024     -0.0161365808
 C     -0.0098817038     -0.0072340859      0.0330838410
 C      0.0017469175      0.0121765739     -0.0057348357
 C     -0.0342431316      0.0109547995     -0.0016876650
 C      0.0121091653      0.0055885258      0.0234613441
 C      0.0081935175     -0.0040518016     -0.0637847056
 C     -0.0190346714      0.0541117377      0.0519551724
 C      0.0259729008     -0.0020470092      0.0216291665
 C     -0.0065405390     -0.0242017959      0.0993536250
 C     -0.0249678937     -0.0458700012     -0.0815121550
 C     -0.0130013354     -0.0138635088      0.0172205186
 H      0.0361031947     -0.0071849928      0.0302713365
 H      0.0034658229      0.0177708278      0.0030088286
 H     -0.0085525971     -0.0259955154     -0.0065664087
 H     -0.0209707415     -0.0124249840     -0.0272203393
 H     -0.0064809168      0.0163337298     -0.0171684941
 H      0.0080432019     -0.0269157365      0.0004935903
 H      0.0038263920     -0.0025275943      0.0010592804
 H     -0.0011430504     -0.0016389973     -0.0190287284
 H      0.0223983033      0.0082305962     -0.0104868497
 H     -0.0060504555     -0.0065559992     -0.0051520680
 H      0.0134956346     -0.0028204219     -0.0017888789
 H      0.0122133254     -0.0289965260      0.0281392538
 H      0.0001465963     -0.0077483519      0.0167801524
 H      0.0165719591     -0.0435720627     -0.0628549028
 H     -0.0276109677      0.0007101933     -0.0496775112
 H      0.0174006439      0.0304174126     -0.0653311515
 H      0.0214905637      0.0389784546      0.0149488099
 H      0.0213339315      0.0284001564      0.0336837643
38
# ORCA AIMD Force Step 5, t=2.50 fs, E_Pot=-772.15600970 Hartree, Unit is Hartree/Angstrom
 C     -0.0264181826      0.0019267853     -0.0132540836
 C     -0.0075277826     -0.0739023080     -0.0207098656
 C     -0.0021954071      0.0162763143      0.0125625567
 C     -0.0223005180      0.0598407823     -0.0093596854
 C      0.0184817538     -0.0220920463      0.0203129406
 C     -0.0013227927      0.0129443479      0.0047030834
 C     -0.0140688406      0.0192562365      0.0100282554
 C     -0.0058339071      0.0151514883      0.0390454826
 C      0.0065004792     -0.0179490884      0.0222687223
 C     -0.0013969126      0.0365448776     -0.0219552137
 C     -0.0104940368     -0.0090521233      0.0430345523
 C      0.0010768908      0.0152415871     -0.0105414328
 C     -0.0420733158      0.0130657271     -0.0019167235
 C      0.0174987588      0.0028686283      0.0285892642
 C      0.0092816102     -0.0037376456     -0.0741334227
 C     -0.0211922965      0.0625930309      0.0538964945
 C      0.0275991541     -0.0025608884      0.0198741871
 C     -0.0056470840     -0.0250534862      0.1121957524
 C     -0.0286968206     -0.0533964394     -0.0978349025
 C     -0.0131079049     -0.0120244262      0.0221308657
 H      0.0403102184     -0.0050394843      0.0317054639
 H      0.0039484186      0.0225825252      0.0032499625
 H     -0.0071860826     -0.0265293882     -0.0049010563
 H     -0.0204632033     -0.0149361548     -0.0274833001
 H     -0.0072427078      0.0158376508     -0.0153561457
 H      0.0101311362     -0.0331553659      0.0005239867
 H      0.0063334124     -0.0048722382     -0.0002791074
 H     -0.0015804627     -0.0020210818     -0.0243076133
 H      0.0232975218      0.0069546706     -0.0091748658
 H     -0.0057431906     -0.0080646551     -0.0081579206
 H      0.0162697055     -0.0033189387     -0.0048323462
 H      0.0117134600     -0.0302269044      0.0288905806
 H     -0.0010364685     -0.0071938593      0.0210584419
 H      0.0176097475     -0.0482054760     -0.0648377558
 H     -0.0286109746      0.0008751003     -0.0513940516
 H      0.0185976356      0.0314289881     -0.0680498797
 H      0.0223320779      0.0407250978      0.0200319848
 H      0.0225571205      0.0292185375      0.0344032823
38
# ORCA AIMD Force Step 6, t=3.00 fs, E_Pot=-772.15092201 Hartree, Unit is Hartree/Angstrom
 C     -0.0273341950     -0.0008767053     -0.0111498925
 C     -0.0099535046     -0.0829335208     -0.0262427474
 C     -0.0038844894      0.0156188785      0.0139708760
 C     -0.0304586531      0.0702928117     -0.0152341995
 C      0.0209243574     -0.0230219682      0.0200613771
 C      0.0021579225      0.0112214012      0.0066135476
 C     -0.0141151281      0.0206714548      0.0125944462
 C     -0.0091731403      0.0194111384      0.0402932632
 C      0.0117600612     -0.0199127536      0.0253329164
 C     -0.0030302388      0.0441062366     -0.0270457458
 C     -0.0109281288     -0.0108168284      0.0523164709
 C      0.0005825386      0.0182262026     -0.0152265860
 C     -0.0494362990      0.0148586977     -0.0022577166
 C      0.0235589881     -0.0014846418      0.0344097734
 C      0.0102014875     -0.0032182492     -0.0827062310
 C     -0.0222678309      0.0686433178      0.0518043943
 C      0.0270746763     -0.0030209463      0.0149858490
 C     -0.0038715400     -0.0240239724      0.1200972868
 C     -0.0307021068     -0.0580247973     -0.1122969649
 C     -0.0118888776     -0.0081927502      0.0280755949
 H      0.0425450296     -0.0017853096      0.0310167588
 H      0.0047022388      0.0251771550      0.0039445957
 H     -0.0049924338     -0.0254166817     -0.0024922622
 H     -0.0184632968     -0.0171053494     -0.0259852454
 H     -0.0076515294      0.0141823701     -0.0121561541
 H      0.0102490653     -0.0375486905     -0.0002003863
 H      0.0083791375     -0.0067776107     -0.0012710130
 H     -0.0018377039     -0.0022768429     -0.0270956990
 H      0.0228614192      0.0049053992     -0.0068934335
 H     -0.0055693169     -0.0094768925     -0.0108318085
 H      0.0187576619     -0.0037535133     -0.0075499649
 H      0.0103047894     -0.0296053491      0.0277761432
 H     -0.0020445311     -0.0068051713      0.0248594632
 H      0.0177793882     -0.0507674914     -0.0629523962
 H     -0.0277263858      0.0009863079     -0.0496685184
 H      0.0188481450      0.0305878701     -0.0667396550
 H      0.0216332650      0.0398307540      0.0250532903
 H      0.0224272740      0.0281166718      0.0328033959
38
# ORCA AIMD Force Step 7, t=3.50 fs, E_Pot=-772.14730780 Hartree, Unit is Hartree/Angstrom
 C     -0.0265342252     -0.0045503139     -0.0073405444
 C     -0.0124114907     -0.0892527446     -0.0319921753
 C     -0.0065117741      0.0135952660      0.0145166577
 C     -0.0397264883      0.0797288392     -0.0224972804
 C      0.0229918920     -0.0227110292      0.0184237360
 C      0.0076515776      0.0077019835      0.0093042000
 C     -0.0133583269      0.0212388180      0.0148333237
 C     -0.0128931630      0.0235885041      0.0385384400
 C      0.0181696796     -0.0207309533      0.0270282586
 C     -0.0045510863      0.0511610953     -0.0314603244
 C     -0.0113679617     -0.0124745959      0.0607096055
 C      0.0002532959      0.0211530986     -0.0199171177
 C     -0.0562621539      0.0164176007     -0.0027709124
 C      0.0302898292     -0.0074195823      0.0408942720
 C      0.0109463234     -0.0024398474     -0.0895723656
 C     -0.0222466350      0.0721850675      0.0456467680
 C      0.0243375467     -0.0034098492      0.0070250663
 C     -0.0012620777     -0.0212684871      0.1226924203
 C     -0.0308551881     -0.0596823569     -0.1245956117
 C     -0.0093214756     -0.0023482068      0.0351003802
 H      0.0427825059      0.0024452495      0.0282789342
 H      0.0058400321      0.0252999518      0.0051858162
 H     -0.0020469012     -0.0227368796      0.0005885464
 H     -0.0150249673     -0.0188815320     -0.0227584717
 H     -0.0077071372      0.0114409630     -0.0076910343
 H      0.0082020600     -0.0400478600     -0.0017590005
 H      0.0098086181     -0.0080237750     -0.0017533442
 H     -0.0018458933     -0.0023799404     -0.0271290821
 H      0.0210312684      0.0020747836     -0.0036266864
 H     -0.0056339541     -0.0108483192     -0.0130226996
 H      0.0209552323     -0.0041392632     -0.0097319283
 H      0.0080585422     -0.0271739427      0.0248675728
 H     -0.0028771714     -0.0066864188      0.0281527165
 H      0.0170717772     -0.0511415450     -0.0571917214
 H     -0.0249427743      0.0010281863     -0.0444561126
 H      0.0181071688      0.0278557690     -0.0612821755
 H      0.0194242693      0.0363472926      0.0298729388
 H      0.0208988890      0.0250744323      0.0288833207
38
# ORCA AIMD Force Step 8, t=4.00 fs, E_Pot=-772.14487069 Hartree, Unit is Hartree/Angstrom
 C     -0.0239218080     -0.0090068905     -0.0018269660
 C     -0.0148802941     -0.0927635197     -0.0378404043
 C     -0.0099502911      0.0103410246      0.0142424085
 C     -0.0498469892      0.0878874086     -0.0309726754
 C      0.0246211686     -0.0212556104      0.0156048922
 C      0.0149540063      0.0026942990      0.0127604833
 C     -0.0118138839      0.0209158648      0.0165336898
 C     -0.0168594511      0.0275167226      0.0337326375
 C      0.0254379461     -0.0203633498      0.0272115602
 C     -0.0059963616      0.0574035404     -0.0348047311
 C     -0.0117179963     -0.0140032325      0.0679785601
 C      0.0002316525      0.0240151983     -0.0243423105
 C     -0.0624904182      0.0176876474     -0.0035841287
 C      0.0374756382     -0.0148079616      0.0477915086
 C      0.0115409664     -0.0013938942     -0.0944914856
 C     -0.0210669748      0.0728274839      0.0352828195
 C      0.0193552365     -0.0036903567     -0.0040434708
 C      0.0022042630     -0.0166376497      0.1196079928
 C     -0.0290529298     -0.0581619839     -0.1342087067
 C     -0.0054411214      0.0053614330      0.0428537941
 H      0.0408704484      0.0075776696      0.0234422568
 H      0.0073759629      0.0229694733      0.0069780897
 H      0.0015248799     -0.0186398565      0.0042136116
 H     -0.0103149464     -0.0202110324     -0.0179703990
 H     -0.0074110977      0.0077579663     -0.0022063448
 H      0.0041445505     -0.0408025392     -0.0040772985
 H      0.0105072953     -0.0084783857     -0.0016220544
 H     -0.0015768568     -0.0023180650     -0.0243224328
 H      0.0180014895     -0.0013542798      0.0004323431
 H     -0.0059367942     -0.0121562134     -0.0146997478
 H      0.0228296961     -0.0044729344     -0.0112728583
 H      0.0050811744     -0.0229739406      0.0202308871
 H     -0.0035312835     -0.0068332356      0.0308784061
 H      0.0154461708     -0.0491083596     -0.0474163120
 H     -0.0202381558      0.0009735646     -0.0357249981
 H      0.0162861723      0.0231198504     -0.0514494954
 H      0.0156422848      0.0302138137      0.0343277050
 H      0.0179807844      0.0201651712      0.0227445155
38
# ORCA AIMD Force Step 9, t=4.50 fs, E_Pot=-772.14292090 Hartree, Unit is Hartree/Angstrom
 C     -0.0194705295     -0.0140849635      0.0053128835
 C     -0.0172856060     -0.0938105161     -0.0436764882
 C     -0.0140639055      0.0061263922      0.0132897904
 C     -0.0605061205      0.0946483363     -0.0403906565
 C      0.0258777683     -0.0188985948      0.0119368612
 C      0.0236105049     -0.0034116834      0.0167812764
 C     -0.0094934859      0.0196624146      0.0176634004
 C     -0.0210252344      0.0311621252      0.0263007633
 C      0.0333212870     -0.0189325446      0.0259621906
 C     -0.0073070217      0.0627816267     -0.0369662646
 C     -0.0120472563     -0.0153586801      0.0739052341
 C      0.0005069643      0.0268063420     -0.0283955362
 C     -0.0680298564      0.0187138442     -0.0047372444
 C      0.0449663178     -0.0234392750      0.0548749130
 C      0.0120063265     -0.0000754047     -0.0973968269
 C     -0.0186619261      0.0702531430      0.0203796555
 C      0.0121856626     -0.0038406204     -0.0180784682
 C      0.0065843876     -0.0100447880      0.1102770880
 C     -0.0252893467     -0.0535188113     -0.1407663018
 C     -0.0003329441      0.0147549901      0.0511071050
 H      0.0367962197      0.0134817342      0.0165918746
 H      0.0092641885      0.0185039664      0.0092185288
 H      0.0055386684     -0.0133989587      0.0082071382
 H     -0.0045777219     -0.0210737795     -0.0118816313
 H     -0.0068030240      0.0033802525      0.0039721613
 H     -0.0015169646     -0.0401211658     -0.0069686931
 H      0.0104445286     -0.0080711603     -0.0008465364
 H     -0.0010397107     -0.0020908351     -0.0190514215
 H      0.0139694239     -0.0052174019      0.0050927019
 H     -0.0064814004     -0.0134159793     -0.0158288958
 H      0.0243623144     -0.0047627839     -0.0120705072
 H      0.0015129168     -0.0171754328      0.0140580173
 H     -0.0040242797     -0.0072656550      0.0330025409
 H      0.0128230201     -0.0443647819     -0.0333196186
 H     -0.0136653599      0.0008047083     -0.0235565370
 H      0.0132549231      0.0162045137     -0.0368798289
 H      0.0103636338      0.0215866895      0.0382805081
 H      0.0137228817      0.0135086546      0.0145406892
38
# ORCA AIMD Force Step 10, t=5.00 fs, E_Pot=-772.14056467 Hartree, Unit is Hartree/Angstrom
 C     -0.0132700841     -0.0196035025      0.0138996735
 C     -0.0194668812     -0.0929265959     -0.0492631440
 C     -0.0186209531      0.0013477269      0.0118589079
 C     -0.0712620329      0.0999288285     -0.0503157695
 C      0.0268203682     -0.0159875663      0.0078581254
 C      0.0329673486     -0.0101361843      0.0210654830
 C     -0.0065255361      0.0175632623      0.0182319955
 C     -0.0252422605      0.0344529328      0.0169560528
 C      0.0414341262     -0.0166306340      0.0234381265
 C     -0.0084665569      0.0672005753     -0.0377963712
 C     -0.0123829816     -0.0165034379      0.0782878529
 C      0.0010565033      0.0295077718     -0.0318931220
 C     -0.0727823110      0.0195196922     -0.0062266393
 C      0.0525288022     -0.0329578940      0.0617349083
 C      0.0123727760      0.0014949057     -0.0981784529
 C     -0.0149697382      0.0641318013      0.0006803636
 C      0.0030583406     -0.0038436614     -0.0346622317
 C      0.0119472292     -0.0013910534      0.0943309107
 C     -0.0196905880     -0.0459971072     -0.1439426508
 C      0.0057862035      0.0254598736      0.0594011875
 H      0.0306473163      0.0199917961      0.0079051248
 H      0.0113779807      0.0124563767      0.0117155352
 H      0.0097389864     -0.0074210743      0.0123269932
 H      0.0018129677     -0.0214786182     -0.0049119380
 H     -0.0059497134     -0.0013338643      0.0104035094
 H     -0.0081712089     -0.0383999942     -0.0101525850
 H      0.0096634396     -0.0068249590      0.0005250263
 H     -0.0002876348     -0.0017115993     -0.0119657374
 H      0.0092840500     -0.0092586019      0.0100462615
 H     -0.0072284353     -0.0146266493     -0.0164262943
 H      0.0255257474     -0.0050116742     -0.0120928255
 H     -0.0024482539     -0.0100902536      0.0066777716
 H     -0.0043894971     -0.0079479782      0.0344951986
 H      0.0091339825     -0.0366220691     -0.0146497346
 H     -0.0054380564      0.0005113175     -0.0083255552
 H      0.0089029287      0.0069891638     -0.0173529873
 H      0.0037491517      0.0107732677      0.0416080530
 H      0.0083019601      0.0053955745      0.0046220260
38
# ORCA AIMD Force Step 11, t=5.50 fs, E_Pot=-772.13700373 Hartree, Unit is Hartree/Angstrom
 C     -0.0056025681     -0.0253136045      0.0235798063
 C     -0.0212176780     -0.0907616675     -0.0543230237
 C     -0.0233263837     -0.0034719563      0.0102100395
 C     -0.0815497361      0.1037078678     -0.0601414640
 C      0.0275445978     -0.0129708123      0.0038930809
 C      0.0423167698     -0.0170176482      0.0252692013
 C     -0.0031227236      0.0148059321      0.0183189131
 C     -0.0293234284      0.0373185625      0.0065832622
 C      0.0492946602     -0.0137398507      0.0199137589
 C     -0.0094726941      0.0706110903     -0.0372064017
 C     -0.0127440456     -0.0174032470      0.0809516845
 C      0.0018183856      0.0320894961     -0.0346478332
 C     -0.0766443571      0.0201359475     -0.0079974923
 C      0.0598735524     -0.0428240135      0.0677900241
 C      0.0126723384      0.0032871347     -0.0967300688
 C     -0.0100213911      0.0543628332     -0.0237242252
 C     -0.0075188170     -0.0037002579     -0.0528930538
 C      0.0182725042      0.0092249524      0.0719435393
 C     -0.0125807622     -0.0361672127     -0.1435067718
 C      0.0125176983      0.0368656900      0.0670237996
 H      0.0227123422      0.0268677417     -0.0022522156
 H      0.0135470634      0.0054887805      0.0142322941
 H      0.0138071566     -0.0012380514      0.0162760176
 H      0.0083460283     -0.0214695477      0.0023500967
 H     -0.0049458802     -0.0059273598      0.0165648411
 H     -0.0151436412     -0.0360396906     -0.0133175911
 H      0.0082799151     -0.0048507495      0.0023699105
 H      0.0005969617     -0.0012027029     -0.0038728642
 H      0.0044085279     -0.0131651332      0.0149023046
 H     -0.0081103661     -0.0157830684     -0.0165410197
 H      0.0262882580     -0.0052203095     -0.0113680841
 H     -0.0065419106     -0.0022215437     -0.0014006978
 H     -0.0046678062     -0.0088250338      0.0353341101
 H      0.0043903929     -0.0257870968      0.0085029429
 H      0.0039687786      0.0001038586      0.0091130287
 H      0.0032324726     -0.0044298457      0.0068663340
 H     -0.0038783875     -0.0016491524      0.0442130613
 H      0.0020721029     -0.0036562855     -0.0063986314
38
# ORCA AIMD Force Step 12, t=6.00 fs, E_Pot=-772.13190420 Hartree, Unit is Hartree/Angstrom
 C      0.0029773705     -0.0308633706      0.0337463177
 C     -0.0223175058     -0.0879704169     -0.0585782708
 C     -0.0278327541     -0.0077137136      0.0086519797
 C     -0.0906982104      0.1060190967     -0.0691121638
 C      0.0281659351     -0.0103621905      0.0006039175
 C      0.0510103311     -0.0236714711      0.0290606402
 C      0.0004434361      0.0116547054      0.0180558147
 C     -0.0330612847      0.0396886440     -0.0039145823
 C      0.0563543444     -0.0106099264      0.0157650173
 C     -0.0103371971      0.0730015361     -0.0351626854
 C     -0.0131425729     -0.0180282128      0.0817607952
 C      0.0026987372      0.0345120254     -0.0364826197
 C     -0.0795123014      0.0205964432     -0.0099533816
 C      0.0666615044     -0.0523051405      0.0722695617
 C      0.0129341629      0.0052715805     -0.0929555351
 C     -0.0040423340      0.0413569780     -0.0519482316
 C     -0.0186643266     -0.0034430702     -0.0712246157
 C      0.0253062166      0.0212578984      0.0443402757
 C     -0.0045383190     -0.0250063865     -0.1393218749
 C      0.0192507886      0.0480936582      0.0729526796
 H      0.0135554107      0.0337635126     -0.0132546792
 H      0.0155853974     -0.0017334017      0.0165269193
 H      0.0173768205      0.0045242488      0.0197172140
 H      0.0143915730     -0.0211182470      0.0091691389
 H     -0.0039045934     -0.0098812941      0.0218965661
 H     -0.0218069523     -0.0333873670     -0.0161723691
 H      0.0064619756     -0.0023293149      0.0045112712
 H      0.0015170874     -0.0005911875      0.0044048251
 H     -0.0001073616     -0.0165866200      0.0192094948
 H     -0.0090375141     -0.0168741465     -0.0162484352
 H      0.0266144737     -0.0053863795     -0.0099759029
 H     -0.0104523834      0.0057245955     -0.0094785448
 H     -0.0049027449     -0.0098274900      0.0355046803
 H     -0.0012173453     -0.0122328112      0.0352727274
 H      0.0137357590     -0.0003733603      0.0272542094
 H     -0.0035029356     -0.0175051718      0.0345338775
 H     -0.0119824411     -0.0147540081      0.0460266374
 H     -0.0043986191     -0.0128627812     -0.0176000238
38
# ORCA AIMD Force Step 13, t=6.50 fs, E_Pot=-772.12572288 Hartree, Unit is Hartree/Angstrom
 C      0.0115989204     -0.0357747337      0.0434916935
 C     -0.0225610477     -0.0851311506     -0.0617860953
 C     -0.0317756605     -0.0107307533      0.0075086792
 C     -0.0979849244      0.1069260162     -0.0763932240
 C      0.0288002185     -0.0086727416     -0.0014810431
 C      0.0585262701     -0.0298153319      0.0321575001
 C      0.0038752079      0.0084185943      0.0176017148
 C     -0.0362499473      0.0414945769     -0.0137318877
 C      0.0620592289     -0.0076182936      0.0114220330