
                                 *****************
                                 * O   R   C   A *
                                 *****************

                                            #,                                       
                                            ###                                      
                                            ####                                     
                                            #####                                    
                                            ######                                   
                                           ########,                                 
                                     ,,################,,,,,                         
                               ,,#################################,,                 
                          ,,##########################################,,             
                       ,#########################################, ''#####,          
                    ,#############################################,,   '####,        
                  ,##################################################,,,,####,       
                ,###########''''           ''''###############################       
              ,#####''   ,,,,##########,,,,          '''####'''          '####       
            ,##' ,,,,###########################,,,                        '##       
           ' ,,###''''                  '''############,,,                           
         ,,##''                                '''############,,,,        ,,,,,,###''
      ,#''                                            '''#######################'''  
     '                                                          ''''####''''         
             ,#######,   #######,   ,#######,      ##                                
            ,#'     '#,  ##    ##  ,#'     '#,    #''#        ######   ,####,        
            ##       ##  ##   ,#'  ##            #'  '#       #        #'  '#        
            ##       ##  #######   ##           ,######,      #####,   #    #        
            '#,     ,#'  ##    ##  '#,     ,#' ,#      #,         ##   #,  ,#        
             '#######'   ##     ##  '#######'  #'      '#     #####' # '####'        



                  #######################################################
                  #                        -***-                        #
                  #          Department of theory and spectroscopy      #
                  #    Directorship and core code : Frank Neese         #
                  #        Max Planck Institute fuer Kohlenforschung    #
                  #                Kaiser Wilhelm Platz 1               #
                  #                 D-45470 Muelheim/Ruhr               #
                  #                      Germany                        #
                  #                                                     #
                  #                  All rights reserved                #
                  #                        -***-                        #
                  #######################################################


                         Program Version 5.0.1 -  RELEASE  -


 With contributions from (in alphabetic order):
   Daniel Aravena         : Magnetic Suceptibility
   Michael Atanasov       : Ab Initio Ligand Field Theory (pilot matlab implementation)
   Alexander A. Auer      : GIAO ZORA, VPT2 properties, NMR spectrum
   Ute Becker             : Parallelization
   Giovanni Bistoni       : ED, misc. LED, open-shell LED, HFLD
   Martin Brehm           : Molecular dynamics
   Dmytro Bykov           : SCF Hessian
   Vijay G. Chilkuri      : MRCI spin determinant printing, contributions to CSF-ICE
   Dipayan Datta          : RHF DLPNO-CCSD density
   Achintya Kumar Dutta   : EOM-CC, STEOM-CC
   Dmitry Ganyushin       : Spin-Orbit,Spin-Spin,Magnetic field MRCI
   Miquel Garcia          : C-PCM and meta-GGA Hessian, CC/C-PCM, Gaussian charge scheme
   Yang Guo               : DLPNO-NEVPT2, F12-NEVPT2, CIM, IAO-localization
   Andreas Hansen         : Spin unrestricted coupled pair/coupled cluster methods
   Benjamin Helmich-Paris : MC-RPA, TRAH-SCF, COSX integrals
   Lee Huntington         : MR-EOM, pCC
   Robert Izsak           : Overlap fitted RIJCOSX, COSX-SCS-MP3, EOM
   Marcus Kettner         : VPT2
   Christian Kollmar      : KDIIS, OOCD, Brueckner-CCSD(T), CCSD density, CASPT2, CASPT2-K
   Simone Kossmann        : Meta GGA functionals, TD-DFT gradient, OOMP2, MP2 Hessian
   Martin Krupicka        : Initial AUTO-CI
   Lucas Lang             : DCDCAS
   Marvin Lechner         : AUTO-CI (C++ implementation), FIC-MRCC
   Dagmar Lenk            : GEPOL surface, SMD
   Dimitrios Liakos       : Extrapolation schemes; Compound Job, initial MDCI parallelization
   Dimitrios Manganas     : Further ROCIS development; embedding schemes
   Dimitrios Pantazis     : SARC Basis sets
   Anastasios Papadopoulos: AUTO-CI, single reference methods and gradients
   Taras Petrenko         : DFT Hessian,TD-DFT gradient, ASA, ECA, R-Raman, ABS, FL, XAS/XES, NRVS
   Peter Pinski           : DLPNO-MP2, DLPNO-MP2 Gradient
   Christoph Reimann      : Effective Core Potentials
   Marius Retegan         : Local ZFS, SOC
   Christoph Riplinger    : Optimizer, TS searches, QM/MM, DLPNO-CCSD(T), (RO)-DLPNO pert. Triples
   Tobias Risthaus        : Range-separated hybrids, TD-DFT gradient, RPA, STAB
   Michael Roemelt        : Original ROCIS implementation
   Masaaki Saitow         : Open-shell DLPNO-CCSD energy and density
   Barbara Sandhoefer     : DKH picture change effects
   Avijit Sen             : IP-ROCIS
   Kantharuban Sivalingam : CASSCF convergence, NEVPT2, FIC-MRCI
   Bernardo de Souza      : ESD, SOC TD-DFT
   Georgi Stoychev        : AutoAux, RI-MP2 NMR, DLPNO-MP2 response
   Willem Van den Heuvel  : Paramagnetic NMR
   Boris Wezisla          : Elementary symmetry handling
   Frank Wennmohs         : Technical directorship


 We gratefully acknowledge several colleagues who have allowed us to
 interface, adapt or use parts of their codes:
   Stefan Grimme, W. Hujo, H. Kruse, P. Pracht,  : VdW corrections, initial TS optimization,
                  C. Bannwarth, S. Ehlert          DFT functionals, gCP, sTDA/sTD-DF
   Ed Valeev, F. Pavosevic, A. Kumar             : LibInt (2-el integral package), F12 methods
   Garnet Chan, S. Sharma, J. Yang, R. Olivares  : DMRG
   Ulf Ekstrom                                   : XCFun DFT Library
   Mihaly Kallay                                 : mrcc  (arbitrary order and MRCC methods)
   Jiri Pittner, Ondrej Demel                    : Mk-CCSD
   Frank Weinhold                                : gennbo (NPA and NBO analysis)
   Christopher J. Cramer and Donald G. Truhlar   : smd solvation model
   Lars Goerigk                                  : TD-DFT with DH, B97 family of functionals
   V. Asgeirsson, H. Jonsson                     : NEB implementation
   FAccTs GmbH                                   : IRC, NEB, NEB-TS, DLPNO-Multilevel, CI-OPT
                                                   MM, QMMM, 2- and 3-layer-ONIOM, Crystal-QMMM,
                                                   LR-CPCM, SF, NACMEs, symmetry and pop. for TD-DFT,
                                                   nearIR, NL-DFT gradient (VV10), updates on ESD,
                                                   ML-optimized integration grids
   S Lehtola, MJT Oliveira, MAL Marques          : LibXC Library
   Liviu Ungur et al                             : ANISO software


 Your calculation uses the libint2 library for the computation of 2-el integrals
 For citations please refer to: http://libint.valeyev.net

 Your ORCA version has been built with support for libXC version: 5.1.0
 For citations please refer to: https://tddft.org/programs/libxc/

 This ORCA versions uses:
   CBLAS   interface :  Fast vector & matrix operations
   LAPACKE interface :  Fast linear algebra routines
   SCALAPACK package :  Parallel linear algebra routines
   Shared memory     :  Shared parallel matrices
   BLAS/LAPACK       :  OpenBLAS 0.3.15  USE64BITINT DYNAMIC_ARCH NO_AFFINITY Zen SINGLE_THREADED
        Core in use  :  Zen
   Copyright (c) 2011-2014, The OpenBLAS Project




***************************************
The coordinates will be read from file: IMAGE_0.xyz
***************************************


Your calculation utilizes the atom-pairwise dispersion correction
with the Becke-Johnson damping scheme (D3BJ)
Cite in your paper:
S.Grimme, S.Ehrlich, L.Goerigk, J Comput Chem, (2011), 32, 1456–1465 
S.Grimme, J.Antony, S.Ehrlich and H.Krieg, J.Chem.Phys., 132, (2010), 154104 
   

================================================================================

----- Orbital basis set information -----
Your calculation utilizes the basis: def2-TZVP
   F. Weigend and R. Ahlrichs, Phys. Chem. Chem. Phys. 7, 3297 (2005).

----- AuxJ basis set information -----
Your calculation utilizes the auxiliary basis: def2/J
   F. Weigend, Phys. Chem. Chem. Phys. 8, 1057 (2006).

================================================================================
                                        WARNINGS
                       Please study these warnings very carefully!
================================================================================


WARNING: Found SCFConvIgnored == true
  ===> : Will try to continue after any unconverged SCF -
         no matter how far from convergence the wavefunction might be.

         Please be very careful with your results!


INFO   : the flag for use of the SHARK integral package has been found!

================================================================================
                                       INPUT FILE
================================================================================
NAME = MD_0.inp
|  1> !MD PBE0 D3 def2-TZVP PAL8
|  2> %md
|  3>   initvel 500_K
|  4>   timestep 0.5_fs
|  5>   thermostat berendsen 500_K timecon 10.0_fs
|  6>   dump position stride 1 filename "IMAGE_0_trajectory_500K.xyz"
|  7>   dump force stride 1 filename "IMAGE_0_forces_500K.xyz"
|  8>   Restart IfExists
|  9>   run 100
| 10> end
| 11> *xyzfile 0 1 IMAGE_0.xyz
| 12> 
| 13>                          ****END OF INPUT****
================================================================================

Will write log file to "MD_0.md.log".

Command line:  /opt/packages/orca/orca_5_0_1_linux_x86-64_shared_openmpi411/orca_md MD_0 orca


    ################################################################
    ########    ORCA ab initio Molecular Dynamics Module    ########
    ########          and SANscript Interpreter             ########
    ########          Martin Brehm, 2016 - 2021             ########
    ########       https://brehm-research.de/orcamd         ########
    ################################################################


  * Compiled as ORCA module.
  * Called from ORCA.
  * Base name: "MD_0"
  * Source code version: May 16 2021
  * Compiled at Jul 22 2021 19:43:51, compiler "Clang 12.0.0 (/home/frankw/CompEnv/src/llvm1200/llvm-project/clang d28af7c654d8db0b68c175db5ce212d74fb5e9bc)", LLVM, CLANG 12.0.0, Linux
  * Machine: x86_64, int=4b, long=8b, addr=8b, 0xA0B0C0D0=D0,C0,B0,A0.
  * Executable name: "/opt/packages/orca/orca_5_0_1_linux_x86-64_shared_openmpi411/orca_md"
  * Running on r019.ib.bridges2.psc.edu at Fri Jul  1 14:53:59 2022 (PID 12130)
  * Running in /jet/home/nhattrup/ORCA_fun/transition_states/bvl_bvl/bvl_bvl_rxn1/nequip_data/0

Initializing SAN engine...

Started parsing input script.
Reading input file "MD_0.mdinput" ...
229 Bytes read.
Tokenizing input...
Found 25 tokens in file.
Handling brackets...
Handling reference parentheses...
Handling keywords...
Handling operators...
Grouping commas...
Removing commas...
Handling variables...
Found unit "K", which is the default.
Found unit "fs", which is the default.
Found unit "K", which is the default.
Found unit "fs", which is the default.
Handling functions, iteration 1...
Handling functions, iteration 2...
Handling functions, iteration 3...
Flattening tree...
Checking keyword syntax...
Finished parsing input script.

Initializing MD engine with interface "ORCA" ...


>>>>>>>>>>>>>>>>>>>>>>>>>>>>>>>>>>>>>>>>>>>>>>>>>>>>
>>>   Output of System Information (from ORCA)   >>>
>>>>>>>>>>>>>>>>>>>>>>>>>>>>>>>>>>>>>>>>>>>>>>>>>>>>

---------------------------------
CARTESIAN COORDINATES (ANGSTROEM)
---------------------------------
  C      1.693817    0.698968   -0.771890
  C      2.466995    1.752403    0.000954
  C      3.337642    1.478818    0.986095
  C      3.670541    0.134772    1.490247
  C      2.615647   -0.972555    1.587671
  C      3.762124   -1.092926    0.577053
  C      3.535558   -1.023891   -0.878605
  C      2.628809   -0.249108   -1.496475
  C      1.209255   -0.780131    1.191904
  C      0.733050   -0.052398    0.152741
  C     -0.726149    0.007196   -0.134857
  C     -1.166601    0.061553   -1.414612
  C     -2.621748    0.071698   -1.840878
  C     -3.333362    1.305093   -1.317047
  C     -3.470930    1.572401   -0.008055
  C     -2.965013    0.739437    1.097514
  C     -1.643783   -0.031496    1.034849
  C     -2.967937   -0.795893    1.054887
  C     -3.470920   -1.551163   -0.108156
  C     -3.334222   -1.193397   -1.395734
  H      1.093149    1.224586   -1.521427
  H      2.298403    2.797602   -0.275810
  H      3.848923    2.311574    1.479262
  H      4.394960    0.129024    2.308671
  H      2.736061   -1.617287    2.461964
  H      4.537502   -1.803372    0.874832
  H      4.168665   -1.676724   -1.487721
  H      2.551380   -0.297031   -2.587439
  H      0.491291   -1.327232    1.808668
  H     -0.428243    0.055694   -2.220442
  H     -2.646223    0.105592   -2.938469
  H     -3.751840    2.002165   -2.049568
  H     -3.999804    2.483356    0.289457
  H     -3.175447    1.148524    2.088878
  H     -1.121973   -0.035185    1.992027
  H     -3.192587   -1.261927    2.017853
  H     -4.002226   -2.479434    0.124294
  H     -3.754765   -1.839305   -2.172636

----------------------------
CARTESIAN COORDINATES (A.U.)
----------------------------
  NO LB      ZA    FRAG     MASS         X           Y           Z
   0 C     6.0000    0    12.011    3.200850    1.320858   -1.458661
   1 C     6.0000    0    12.011    4.661945    3.311562    0.001803
   2 C     6.0000    0    12.011    6.307229    2.794561    1.863449
   3 C     6.0000    0    12.011    6.936317    0.254682    2.816159
   4 C     6.0000    0    12.011    4.942856   -1.837863    3.000263
   5 C     6.0000    0    12.011    7.109384   -2.065331    1.090472
   6 C     6.0000    0    12.011    6.681236   -1.934874   -1.660323
   7 C     6.0000    0    12.011    4.967729   -0.470746   -2.827928
   8 C     6.0000    0    12.011    2.285161   -1.474234    2.252372
   9 C     6.0000    0    12.011    1.385264   -0.099018    0.288639
  10 C     6.0000    0    12.011   -1.372223    0.013598   -0.254843
  11 C     6.0000    0    12.011   -2.204556    0.116318   -2.673229
  12 C     6.0000    0    12.011   -4.954386    0.135490   -3.478755
  13 C     6.0000    0    12.011   -6.299141    2.466268   -2.488858
  14 C     6.0000    0    12.011   -6.559107    2.971407   -0.015222
  15 C     6.0000    0    12.011   -5.603063    1.397333    2.074001
  16 C     6.0000    0    12.011   -3.106300   -0.059519    1.955581
  17 C     6.0000    0    12.011   -5.608588   -1.504020    1.993448
  18 C     6.0000    0    12.011   -6.559088   -2.931273   -0.204385
  19 C     6.0000    0    12.011   -6.300766   -2.255193   -2.637555
  20 H     1.0000    0     1.008    2.065752    2.314132   -2.875080
  21 H     1.0000    0     1.008    4.343352    5.286702   -0.521205
  22 H     1.0000    0     1.008    7.273410    4.368242    2.795400
  23 H     1.0000    0     1.008    8.305271    0.243820    4.362756
  24 H     1.0000    0     1.008    5.170406   -3.056230    4.652438
  25 H     1.0000    0     1.008    8.574636   -3.407879    1.653193
  26 H     1.0000    0     1.008    7.877635   -3.168549   -2.811385
  27 H     1.0000    0     1.008    4.821409   -0.561307   -4.889551
  28 H     1.0000    0     1.008    0.928405   -2.508105    3.417887
  29 H     1.0000    0     1.008   -0.809262    0.105246   -4.196027
  30 H     1.0000    0     1.008   -5.000637    0.199540   -5.552902
  31 H     1.0000    0     1.008   -7.089950    3.783544   -3.873122
  32 H     1.0000    0     1.008   -7.558534    4.692863    0.546994
  33 H     1.0000    0     1.008   -6.000725    2.170396    3.947407
  34 H     1.0000    0     1.008   -2.120222   -0.066490    3.764385
  35 H     1.0000    0     1.008   -6.033115   -2.384696    3.813190
  36 H     1.0000    0     1.008   -7.563111   -4.685451    0.234882
  37 H     1.0000    0     1.008   -7.095478   -3.475783   -4.105687

---------------------
BASIS SET INFORMATION
---------------------
There are 2 groups of distinct atoms

 Group   1 Type C   : 11s6p2d1f contracted to 5s3p2d1f pattern {62111/411/11/1}
 Group   2 Type H   : 5s1p contracted to 3s1p pattern {311/1}

Atom   0C    basis set group =>   1
Atom   1C    basis set group =>   1
Atom   2C    basis set group =>   1
Atom   3C    basis set group =>   1
Atom   4C    basis set group =>   1
Atom   5C    basis set group =>   1
Atom   6C    basis set group =>   1
Atom   7C    basis set group =>   1
Atom   8C    basis set group =>   1
Atom   9C    basis set group =>   1
Atom  10C    basis set group =>   1
Atom  11C    basis set group =>   1
Atom  12C    basis set group =>   1
Atom  13C    basis set group =>   1
Atom  14C    basis set group =>   1
Atom  15C    basis set group =>   1
Atom  16C    basis set group =>   1
Atom  17C    basis set group =>   1
Atom  18C    basis set group =>   1
Atom  19C    basis set group =>   1
Atom  20H    basis set group =>   2
Atom  21H    basis set group =>   2
Atom  22H    basis set group =>   2
Atom  23H    basis set group =>   2
Atom  24H    basis set group =>   2
Atom  25H    basis set group =>   2
Atom  26H    basis set group =>   2
Atom  27H    basis set group =>   2
Atom  28H    basis set group =>   2
Atom  29H    basis set group =>   2
Atom  30H    basis set group =>   2
Atom  31H    basis set group =>   2
Atom  32H    basis set group =>   2
Atom  33H    basis set group =>   2
Atom  34H    basis set group =>   2
Atom  35H    basis set group =>   2
Atom  36H    basis set group =>   2
Atom  37H    basis set group =>   2
---------------------------------
AUXILIARY/J BASIS SET INFORMATION
---------------------------------
There are 2 groups of distinct atoms

 Group   1 Type C   : 12s5p4d2f1g contracted to 6s4p3d1f1g pattern {711111/2111/211/2/1}
 Group   2 Type H   : 5s2p1d contracted to 3s1p1d pattern {311/2/1}

Atom   0C    basis set group =>   1
Atom   1C    basis set group =>   1
Atom   2C    basis set group =>   1
Atom   3C    basis set group =>   1
Atom   4C    basis set group =>   1
Atom   5C    basis set group =>   1
Atom   6C    basis set group =>   1
Atom   7C    basis set group =>   1
Atom   8C    basis set group =>   1
Atom   9C    basis set group =>   1
Atom  10C    basis set group =>   1
Atom  11C    basis set group =>   1
Atom  12C    basis set group =>   1
Atom  13C    basis set group =>   1
Atom  14C    basis set group =>   1
Atom  15C    basis set group =>   1
Atom  16C    basis set group =>   1
Atom  17C    basis set group =>   1
Atom  18C    basis set group =>   1
Atom  19C    basis set group =>   1
Atom  20H    basis set group =>   2
Atom  21H    basis set group =>   2
Atom  22H    basis set group =>   2
Atom  23H    basis set group =>   2
Atom  24H    basis set group =>   2
Atom  25H    basis set group =>   2
Atom  26H    basis set group =>   2
Atom  27H    basis set group =>   2
Atom  28H    basis set group =>   2
Atom  29H    basis set group =>   2
Atom  30H    basis set group =>   2
Atom  31H    basis set group =>   2
Atom  32H    basis set group =>   2
Atom  33H    basis set group =>   2
Atom  34H    basis set group =>   2
Atom  35H    basis set group =>   2
Atom  36H    basis set group =>   2
Atom  37H    basis set group =>   2

############################################
   Total Atom Count:              38
   Total System Mass:          258.4 a.m.u.
   Total Basis Dimension:        728
   Total Electron Number:        138
   Total Charge:                   0
   Total Multiplicity:             1
  ------------------------------------------
   ReducePrint:                 true
   Print Mulliken Pop:             1
   Print Loewdin Pop:              1
   Print Mayer Pop:                1
   Print Orbital Energies:         1
############################################

<<<<<<<<<<<<<<<<<<<<<<<<<<<<<<<<<<<<<<<<<<<<<<<<<<<<
<<<          End of System Information           <<<
<<<<<<<<<<<<<<<<<<<<<<<<<<<<<<<<<<<<<<<<<<<<<<<<<<<<

Initializing regions...

Defined regions:
         all:    38 atoms
          qm:    38 atoms
      active:    38 atoms


######################################################
########        Executing Input Script        ########
######################################################

Execution verbose level is 2.



>>>>>> Initvel 500

Initializing atom velocities for region "all" to 500.00 K:
  Creating Maxwell-Boltzmann distribution...
  Removing initial center of mass movement...
  Rescaling velocities to match exact initial temperature (factor 0.729543)...
Done.


>>>>>> Timestep 0.5

Setting integration time step to 0.50 fs.


>>>>>> Thermostat Berendsen, 500, Timecon, 10.0

Switching on thermostat for region "all": Type Berendsen, temperature 500.00 K, time constant 10.00 fs, global.


>>>>>> Dump Position, Stride, 1, Filename, "IMAGE_0_trajectory_500K.xyz"

Modified writing position trajectory for region "all": Format XYZ, stride 1, filename "IMAGE_0_trajectory_500K.xyz", append.


>>>>>> Dump Force, Stride, 1, Filename, "IMAGE_0_forces_500K.xyz"

Switched on writing force trajectory for region "all": Format XYZ, stride 1, filename "IMAGE_0_forces_500K.xyz", append.


>>>>>> Restart Ifexists

Reading restart file "MD_0.mdrestart"...
  Restart file "MD_0.mdrestart" does not exist; not restarting.
Failed, but "Ifexists" was specified. Continuing.


>>>>>> Run 100


***************************************************
****    Starting MD loop for      100 steps    ****
***************************************************


Dump: Will write Position data of region "all" in XYZ format with stride 1 to "IMAGE_0_trajectory_500K.xyz" (append).
Dump: Will write Force data of region "all" in XYZ format with stride 1 to "IMAGE_0_forces_500K.xyz" (append).

Defined regions:
         all:    38 atoms
          qm:    38 atoms
      active:    38 atoms

Active Thermostats:
  (*) Region "all": Type Berendsen, temperature 500.00 K, time constant 10.00 fs, global.


Will write restart file to "MD_0.mdrestart" after each step.
Will write energy statistics to "MD_0-md-ener.csv" after each step.

The system contains 114 active degrees of freedom (38 active atoms * 3).


            |  Sim. Time |  t_SCF | t_Grad |     Temp |     E_Kin |         E_Pot |         E_Tot |      Cons.Qty |   Drift
       Step |       [fs] |    [s] |    [s] |      [K] | [Hartree] |     [Hartree] |     [Hartree] |     [Hartree] |     [K]
------------|------------|--------|--------|----------|-----------|---------------|---------------|---------------|-----------
          0          0.0    206.1              500.00    0.090254     -772.184218     -772.093964                          
          1          0.5    131.2     42.3     488.84    0.088239     -772.181546     -772.093307     -772.093413      0.00
          2          1.0    132.9     41.9     461.93    0.083382     -772.176251     -772.092869     -772.093336      0.21
          3          1.5    132.2     42.3     428.59    0.077364     -772.169475     -772.092111     -772.093258      0.43
          4          2.0    123.0     42.3     395.29    0.071353     -772.162401     -772.091048     -772.093189      0.62
          5          2.5    113.1     42.7     367.12    0.066269     -772.156010     -772.089741     -772.093144      0.74
          6          3.0    124.2     42.4     347.07    0.062649     -772.150922     -772.088273     -772.093129      0.79
          7          3.5    115.2     43.3     335.62    0.060583     -772.147308     -772.086725     -772.093143      0.75
          8          4.0    115.0     43.4     330.81    0.059713     -772.144871     -772.085158     -772.093183      0.64
          9          4.5    114.7     43.1     328.73    0.059338     -772.142921     -772.083583     -772.093235      0.49
         10          5.0    119.7     45.2     324.64    0.058601     -772.140565     -772.081964     -772.093282      0.36
         11          5.5    113.0     42.5     314.58    0.056784     -772.137004     -772.080220     -772.093299      0.31
         12          6.0    112.9     42.4     297.19    0.053645     -772.131904     -772.078259     -772.093266      0.41
         13          6.5    112.4     42.8     275.27    0.049689     -772.125723     -772.076034     -772.093175      0.66
         14          7.0    112.6     43.1     256.00    0.046210     -772.119802     -772.073591     -772.093051      1.00
         15          7.5    103.7     43.3     248.82    0.044915     -772.116023     -772.071108     -772.092954      1.27
         16          8.0    114.6     43.4     261.18    0.047145     -772.115975     -772.068831     -772.092946      1.29
         17          8.5    114.7     43.5     293.58    0.052993     -772.119957     -772.066964     -772.093041      1.03
         18          9.0    115.0     43.1     337.93    0.060999     -772.126580     -772.065582     -772.093198      0.60
         19          9.5    114.4     42.6     381.24    0.068818     -772.133412     -772.064594     -772.093338      0.21
         20         10.0    113.4     42.8     411.96    0.074361     -772.138190     -772.063829     -772.093409      0.01
         21         10.5    116.1     42.4     424.38    0.076605     -772.139707     -772.063102     -772.093401      0.03
         22         11.0    113.9     42.4     419.48    0.075719     -772.137992     -772.062273     -772.093337      0.21
         23         11.5    114.0     43.4     402.88    0.072724     -772.133986     -772.061262     -772.093249      0.45
         24         12.0    116.0     43.6     382.24    0.068997     -772.129054     -772.060057     -772.093162      0.69
         25         12.5    104.8     43.2     364.80    0.065849     -772.124564     -772.058714     -772.093104      0.85
         26         13.0    133.8     43.2     356.02    0.064264     -772.121588     -772.057323     -772.093081      0.92
         27         13.5    132.9     45.4     358.48    0.064708     -772.120692     -772.055985     -772.093087      0.90
         28         14.0    131.8     42.3     371.40    0.067040     -772.121846     -772.054806     -772.093130      0.78
         29         14.5    132.3     42.5     390.93    0.070566     -772.124410     -772.053844     -772.093204      0.58
         30         15.0    132.4     42.7     410.88    0.074168     -772.127254     -772.053086     -772.093293      0.33
         31         15.5    134.1     43.4     424.23    0.076576     -772.129024     -772.052448     -772.093374      0.11
         32         16.0    125.6     43.7     425.18    0.076748     -772.128526     -772.051778     -772.093416     -0.01
         33         16.5    125.6     43.2     411.47    0.074274     -772.125185     -772.050911     -772.093390      0.06
         34         17.0    115.4     43.5     386.16    0.069705     -772.119437     -772.049731     -772.093292      0.34
         35         17.5    115.6     42.6     357.98    0.064618     -772.112853     -772.048235     -772.093144      0.74
         36         18.0    113.6     42.8     338.91    0.061175     -772.107747     -772.046572     -772.093011      1.11
         37         18.5    113.1     42.3     339.07    0.061205     -772.106207     -772.045002     -772.092971      1.22
         38         19.0    131.2     42.7     361.10    0.065182     -772.108947     -772.043765     -772.093054      0.99
         39         19.5    134.1     44.1     397.93    0.071829     -772.114786     -772.042956     -772.093215      0.55
         40         20.0    142.9     44.6     436.43    0.078779     -772.121282     -772.042503     -772.093365      0.13
         41         20.5    136.3     43.8     464.36    0.083821     -772.126063     -772.042242     -772.093443     -0.08
         42         21.0    139.7     43.4     475.53    0.085836     -772.127839     -772.042003     -772.093436     -0.06
         43         21.5    135.1     42.9     470.77    0.084978     -772.126636     -772.041658     -772.093369      0.12
         44         22.0    134.5     42.7     455.89    0.082292     -772.123438     -772.041146     -772.093276      0.38
         45         22.5    133.1     43.5     438.68    0.079185     -772.119659     -772.040474     -772.093187      0.63
         46         23.0    134.1     42.6     426.43    0.076974     -772.116682     -772.039709     -772.093120      0.81
         47         23.5    139.1     43.9     424.25    0.076581     -772.115538     -772.038957     -772.093088      0.90
         48         24.0    142.6     43.2     434.15    0.078368     -772.116708     -772.038340     -772.093097      0.88
         49         24.5    136.2     43.7     454.65    0.082068     -772.120024     -772.037957     -772.093144      0.74
         50         25.0    135.7     43.5     481.09    0.086840     -772.124695     -772.037854     -772.093222      0.53
         51         25.5    144.7     43.9     506.56    0.091439     -772.129448     -772.038009     -772.093314      0.27
         52         26.0    144.3     43.4     523.50    0.094496     -772.132814     -772.038317     -772.093399      0.04
         53         26.5    148.2     43.6     525.74    0.094900     -772.133509     -772.038610     -772.093447     -0.09
         54         27.0    136.8     43.9     510.68    0.092182     -772.130877     -772.038695     -772.093431     -0.05
         55         27.5    136.7     44.5     481.09    0.086841     -772.125266     -772.038425     -772.093340      0.20
         56         28.0    126.3     43.0     445.40    0.080398     -772.118156     -772.037758     -772.093192      0.61
         57         28.5    105.6     43.6     415.46    0.074995     -772.111813     -772.036818     -772.093056      0.99
         58         29.0    114.8     42.8     402.02    0.072567     -772.108401     -772.035834     -772.093002      1.14
         59         29.5    115.6     43.1     409.08    0.073843     -772.108866     -772.035023     -772.093055      0.99
         60         30.0    114.6     43.2     431.46    0.077882     -772.112386     -772.034505     -772.093188      0.62
         61         30.5    115.2     42.8     457.81    0.082638     -772.116875     -772.034237     -772.093320      0.26
         62         31.0    117.0     43.4     476.95    0.086093     -772.120179     -772.034086     -772.093389      0.07
         63         31.5    117.4     43.5     482.94    0.087175     -772.121088     -772.033913     -772.093377      0.10
         64         32.0    116.2     43.8     476.39    0.085993     -772.119612     -772.033620     -772.093309      0.29
         65         32.5    116.4     43.6     462.71    0.083523     -772.116695     -772.033172     -772.093216      0.55
         66         33.0    116.5     45.2     449.30    0.081102     -772.113704     -772.032603     -772.093128      0.79
         67         33.5    133.2     43.2     443.05    0.079974     -772.111973     -772.031999     -772.093065      0.96
         68         34.0    134.7     42.8     448.64    0.080983     -772.112469     -772.031486     -772.093040      1.03
         69         34.5    114.1     43.0     467.50    0.084388     -772.115582     -772.031194     -772.093057      0.99
         70         35.0    134.4     43.0     497.49    0.089802     -772.121029     -772.031227     -772.093114      0.83
         71         35.5    138.8     42.8     533.24    0.096254     -772.127885     -772.031631     -772.093202      0.59
         72         36.0    135.8     44.1     567.21    0.102386     -772.134755     -772.032369     -772.093302      0.31
         73         36.5    135.8     43.1     591.39    0.106751     -772.140078     -772.033327     -772.093391      0.06
         74         37.0    135.6     42.8     599.32    0.108182     -772.142506     -772.034324     -772.093445     -0.09
         75         37.5    133.1     42.7     588.15    0.106165     -772.141320     -772.035155     -772.093438     -0.07
         76         38.0    134.0     42.7     560.10    0.101102     -772.136754     -772.035652     -772.093364      0.14
         77         38.5    134.0     43.9     522.65    0.094343     -772.130084     -772.035741     -772.093238      0.48
         78         39.0    136.5     43.0     486.61    0.087836     -772.123322     -772.035486     -772.093110      0.84
         79         39.5    141.5     43.9     462.01    0.083397     -772.118455     -772.035058     -772.093043      1.03
         80         40.0    134.9     43.6     453.55    0.081870     -772.116515     -772.034646     -772.093072      0.94
         81         40.5    136.5     43.3     458.22    0.082712     -772.117064     -772.034351     -772.093174      0.66
         82         41.0    133.5     42.8     467.38    0.084366     -772.118519     -772.034153     -772.093286      0.35
         83         41.5    143.6     42.9     471.81    0.085166     -772.119115     -772.033949     -772.093350      0.17
         84         42.0    144.6     44.1     466.19    0.084152     -772.117778     -772.033627     -772.093349      0.18
         85         42.5    145.2     43.5     450.67    0.081350     -772.114454     -772.033104     -772.093294      0.33
         86         43.0    144.7     43.6     429.67    0.077559     -772.109914     -772.032356     -772.093215      0.55
         87         43.5    116.2     43.5     409.63    0.073941     -772.105357     -772.031416     -772.093134      0.77
         88         44.0    122.8     43.0     396.87    0.071637     -772.102010     -772.030372     -772.093070      0.95
         89         44.5    122.0     42.6     395.98    0.071478     -772.100826     -772.029349     -772.093034      1.05
         90         45.0    132.1     42.4     408.85    0.073801     -772.102287     -772.028486     -772.093038      1.04
         91         45.5    132.7     43.3     434.23    0.078381     -772.106284     -772.027903     -772.093079      0.92
         92         46.0    134.3     43.6     467.81    0.084444     -772.112112     -772.027669     -772.093151      0.73
         93         46.5    126.1     43.1     503.08    0.090810     -772.118593     -772.027782     -772.093235      0.49
         94         47.0    125.3     43.7     532.62    0.096142     -772.124312     -772.028170     -772.093313      0.28
         95         47.5    126.1     43.1     549.90    0.099262     -772.127956     -772.028695     -772.093363      0.14
         96         48.0    124.4     42.2     551.20    0.099496     -772.128680     -772.029184     -772.093366      0.13
         97         48.5    124.6     42.3     537.08    0.096947     -772.126425     -772.029478     -772.093308      0.29
         98         49.0    124.1     43.0     512.86    0.092575     -772.122067     -772.029492     -772.093200      0.59
         99         49.5    124.7     44.3     487.33    0.087967     -772.117219     -772.029253     -772.093081      0.92
        100         50.0    136.9     44.0     469.36    0.084724     -772.113617     -772.028893     -772.093012      1.11
------------|------------|--------|--------|----------|-----------|---------------|---------------|---------------|-----------
            |  Sim. Time |  t_SCF | t_Grad |     Temp |     E_Kin |         E_Pot |         E_Tot |      Cons.Qty |   Drift
       Step |       [fs] |    [s] |    [s] |      [K] | [Hartree] |     [Hartree] |     [Hartree] |     [Hartree] |     [K]


Finished MD run of 100 steps.


Thermostat Summary:
  (*) Region "all": Injected 168.35 kJ/mol of energy into the system (equivalent to 355.22 K).


>>> Timing data >>>
    MD loop was running for 17205.023 seconds ( 4:46:45.023 h:m:s).
    Performance: 172.050 seconds/step, 0.0105 ps/hour.
    Time spent within the MD module (overhead): 0.150 seconds (0.0009 % of total time).
<<< Timing data <<<


Finished MD loop.


###############################################################
########        Finished Executing Input Script        ########
###############################################################


    7 function calls, 0 operator calls, 26 evaluated expressions.


Timings for individual modules during the MD run:

GTO integral calculation        ...      207.734 sec (=   3.462 min)   1.2 %
SCF iterations                  ...    12649.025 sec (= 210.817 min)  73.6 %
SCF Gradient evaluation         ...     4321.997 sec (=  72.033 min)  25.2 %
Self time inside of MD module   ...        2.942 sec (=   0.049 min)   0.0 %

Sum of individual times         ...    17181.698 sec (= 286.362 min)

Total wall time of MD module    ...    17207.798 sec (= 286.797 min)
             --> "dark time"    ...       26.100 sec (=   0.435 min)   0.2 %

( The "dark time" is spent in the ORCA-internal routines for energy and gradient calculation,
  but not inside of the sub-programs which do so. It contains operating system overhead for
  spawning new processes in each MD step and some file IO time. )



    #########################################################
    ####    ORCA ab initio Molecular Dynamics leaving    ####
    ####           Martin Brehm, 2016 - 2021             ####
    ####        https://brehm-research.de/orcamd         ####
    #########################################################


Timings for individual modules:

Sum of individual times         ...    17207.988 sec (= 286.800 min)
Molecular Dynamics run          ...    17207.988 sec (= 286.800 min) 100.0 %
                             ****ORCA TERMINATED NORMALLY****
TOTAL RUN TIME: 0 days 4 hours 46 minutes 50 seconds 161 msec
