60
# ORCA AIMD Force Step 0, t=0.00 fs, E_Pot=-1207.43571284 Hartree, Unit is Hartree/Angstrom
 C      0.0000000000      0.0000000000      0.0000000000
 C      0.0000000000      0.0000000000      0.0000000000
 O      0.0000000000      0.0000000000      0.0000000000
 C      0.0000000000      0.0000000000      0.0000000000
 C      0.0000000000      0.0000000000      0.0000000000
 C      0.0000000000      0.0000000000      0.0000000000
 C      0.0000000000      0.0000000000      0.0000000000
 O      0.0000000000      0.0000000000      0.0000000000
 B      0.0000000000      0.0000000000      0.0000000000
 C      0.0000000000      0.0000000000      0.0000000000
 C      0.0000000000      0.0000000000      0.0000000000
 C      0.0000000000      0.0000000000      0.0000000000
 H      0.0000000000      0.0000000000      0.0000000000
 C      0.0000000000      0.0000000000      0.0000000000
 H      0.0000000000      0.0000000000      0.0000000000
 C      0.0000000000      0.0000000000      0.0000000000
 B      0.0000000000      0.0000000000      0.0000000000
 O      0.0000000000      0.0000000000      0.0000000000
 C      0.0000000000      0.0000000000      0.0000000000
 C      0.0000000000      0.0000000000      0.0000000000
 C      0.0000000000      0.0000000000      0.0000000000
 C      0.0000000000      0.0000000000      0.0000000000
 C      0.0000000000      0.0000000000      0.0000000000
 C      0.0000000000      0.0000000000      0.0000000000
 O      0.0000000000      0.0000000000      0.0000000000
 C      0.0000000000      0.0000000000      0.0000000000
 C      0.0000000000      0.0000000000      0.0000000000
 H      0.0000000000      0.0000000000      0.0000000000
 C      0.0000000000      0.0000000000      0.0000000000
 C      0.0000000000      0.0000000000      0.0000000000
 C      0.0000000000      0.0000000000      0.0000000000
 H      0.0000000000      0.0000000000      0.0000000000
 H      0.0000000000      0.0000000000      0.0000000000
 H      0.0000000000      0.0000000000      0.0000000000
 H      0.0000000000      0.0000000000      0.0000000000
 H      0.0000000000      0.0000000000      0.0000000000
 H      0.0000000000      0.0000000000      0.0000000000
 H      0.0000000000      0.0000000000      0.0000000000
 H      0.0000000000      0.0000000000      0.0000000000
 H      0.0000000000      0.0000000000      0.0000000000
 H      0.0000000000      0.0000000000      0.0000000000
 H      0.0000000000      0.0000000000      0.0000000000
 H      0.0000000000      0.0000000000      0.0000000000
 H      0.0000000000      0.0000000000      0.0000000000
 H      0.0000000000      0.0000000000      0.0000000000
 H      0.0000000000      0.0000000000      0.0000000000
 H      0.0000000000      0.0000000000      0.0000000000
 H      0.0000000000      0.0000000000      0.0000000000
 H      0.0000000000      0.0000000000      0.0000000000
 H      0.0000000000      0.0000000000      0.0000000000
 H      0.0000000000      0.0000000000      0.0000000000
 H      0.0000000000      0.0000000000      0.0000000000
 H      0.0000000000      0.0000000000      0.0000000000
 H      0.0000000000      0.0000000000      0.0000000000
 H      0.0000000000      0.0000000000      0.0000000000
 H      0.0000000000      0.0000000000      0.0000000000
 H      0.0000000000      0.0000000000      0.0000000000
 H      0.0000000000      0.0000000000      0.0000000000
 H      0.0000000000      0.0000000000      0.0000000000
 H      0.0000000000      0.0000000000      0.0000000000
60
# ORCA AIMD Force Step 1, t=0.50 fs, E_Pot=-1207.43216578 Hartree, Unit is Hartree/Angstrom
 C     -0.0101845691      0.0215923845      0.0146057312
 C     -0.0000804755     -0.0129519565     -0.0082499588
 O      0.0093322171     -0.0094606646      0.0036017561
 C     -0.0252868520      0.0057977883     -0.0274466880
 C      0.0016753343     -0.0018450255      0.0067945674
 C     -0.0063615146     -0.0120625812      0.0008987938
 C     -0.0200087712      0.0226406148     -0.0051602617
 O     -0.0239815263      0.0058852796     -0.0148504566
 B      0.0179572994     -0.0139120904     -0.0050404178
 C      0.0118757963      0.0115767032      0.0259025700
 C     -0.0145097806      0.0033224394     -0.0108168884
 C      0.0152659552      0.0077837445     -0.0005851167
 H     -0.0355996636      0.0064177522     -0.0219484184
 C      0.0207849517      0.0072275833      0.0154584303
 H     -0.0095299000     -0.0113553856     -0.0292475178
 C     -0.0124965504     -0.0085284448     -0.0210490795
 B     -0.0084753150     -0.0022747878      0.0050500655
 O     -0.0186457243     -0.0111172810      0.0070591923
 C      0.0026103925     -0.0148500730     -0.0176469452
 C     -0.0022638196     -0.0060592752      0.0097232928
 C      0.0183332311     -0.0093765376      0.0036481956
 C      0.0104279548      0.0070343147     -0.0027254607
 C     -0.0033664798     -0.0050596068     -0.0119398543
 C     -0.0108096714     -0.0131828568     -0.0136315568
 O      0.0090816581      0.0118813774      0.0201251590
 C     -0.0010482064     -0.0016807405      0.0151908746
 C      0.0118849626      0.0041770311     -0.0041492720
 H      0.0096298253      0.0083128863      0.0088831504
 C      0.0151630972      0.0260681623      0.0001149972
 C     -0.0152409419     -0.0251425477     -0.0185955033
 C      0.0181524975      0.0046394547      0.0028792048
 H     -0.0145357666     -0.0311480883     -0.0039317252
 H      0.0148067156     -0.0027583695      0.0075357823
 H      0.0053998767     -0.0092212443     -0.0037068713
 H     -0.0051367797     -0.0118901131      0.0018227511
 H      0.0319648556     -0.0044309398     -0.0002687122
 H      0.0060910532     -0.0026332021      0.0112977936
 H     -0.0022423743      0.0209209275      0.0139239257
 H     -0.0015234299      0.0105019565      0.0176979333
 H      0.0043748289      0.0112103526     -0.0177746974
 H     -0.0030945097      0.0046470133     -0.0041700595
 H     -0.0010001256      0.0084951545      0.0183779846
 H     -0.0063659487      0.0008604470     -0.0032538024
 H      0.0167115772     -0.0366082457      0.0004484523
 H     -0.0163435659      0.0080740472      0.0030936464
 H     -0.0066464442     -0.0038680194     -0.0051748817
 H      0.0083641377      0.0022854815     -0.0100508345
 H     -0.0008373338      0.0004548918     -0.0001106845
 H     -0.0335368936     -0.0073872211     -0.0077094293
 H     -0.0062644052      0.0247024736      0.0142387088
 H      0.0138472979      0.0096714329     -0.0196198428
 H      0.0048917336      0.0008348922     -0.0073857968
 H      0.0174696792      0.0074355432      0.0122154700
 H     -0.0086835095     -0.0153321713      0.0079932753
 H      0.0058067170     -0.0007424659     -0.0103536373
 H     -0.0154508025      0.0190707156      0.0034274601
 H      0.0247977564      0.0048186351      0.0145802608
 H      0.0218513801      0.0101395258     -0.0019731315
 H     -0.0017191233      0.0028153040      0.0287400269
 H     -0.0070587024     -0.0173920391      0.0132949270
60
# ORCA AIMD Force Step 2, t=1.00 fs, E_Pot=-1207.42359472 Hartree, Unit is Hartree/Angstrom
 C     -0.0201793375      0.0411680386      0.0368897472
 C     -0.0017009159     -0.0286301775     -0.0215519072
 O      0.0008361152     -0.0035487473      0.0046300416
 C     -0.0438337767      0.0180983428     -0.0590575968
 C      0.0067219966     -0.0055317615      0.0099849547
 C     -0.0155727749     -0.0167027626      0.0002164846
 C     -0.0438485354      0.0369066607     -0.0079251167
 O     -0.0317119298      0.0113713865     -0.0138866951
 B      0.0328802861     -0.0213278025     -0.0042825305
 C      0.0066138161      0.0201327398      0.0306770185
 C     -0.0162594770      0.0071728096     -0.0053651667
 C      0.0221248472      0.0063077476      0.0014254973
 H     -0.0475095168      0.0070384760     -0.0269063376
 C      0.0354398499      0.0105197770      0.0265740216
 H     -0.0126086211     -0.0141204362     -0.0398377340
 C     -0.0155061545     -0.0052924313     -0.0139052028
 B     -0.0105986036     -0.0035260601      0.0022152793
 O     -0.0185318536     -0.0096188637      0.0149217794
 C      0.0055831126     -0.0296519444     -0.0298926601
 C     -0.0039297415     -0.0186721465      0.0158735683
 C      0.0306797251     -0.0131624957      0.0048051053
 C      0.0166496924      0.0136533370     -0.0032407005
 C     -0.0019275961     -0.0150735465     -0.0209295478
 C     -0.0172851065     -0.0192355066     -0.0283740580
 O      0.0083003157      0.0120955327      0.0236547163
 C     -0.0070177154     -0.0101118915      0.0048986466
 C      0.0196654812      0.0089966023      0.0008788463
 H      0.0058465590      0.0061885155      0.0047201248
 C      0.0212812510      0.0302855146     -0.0037225142
 C     -0.0241728298     -0.0345273900     -0.0249250026
 C      0.0239135363      0.0129418920      0.0050063851
 H     -0.0190078486     -0.0382241586     -0.0025554896
 H      0.0095010489     -0.0031382120      0.0105230327
 H      0.0192705157     -0.0326704606     -0.0237212870
 H     -0.0028265016     -0.0053964752     -0.0005753975
 H      0.0416448155     -0.0051271122     -0.0021179840
 H      0.0139269450     -0.0125782746      0.0432561002
 H     -0.0007588093      0.0255983520      0.0161499204
 H     -0.0047643056      0.0114346990      0.0184868244
 H     -0.0004782505      0.0110710659     -0.0203134727
 H      0.0133829909      0.0083491536     -0.0017180232
 H      0.0000201425      0.0098356059      0.0169131756
 H      0.0065006405      0.0024817028      0.0013589602
 H      0.0265302188     -0.0507288779     -0.0008399819
 H     -0.0141588286      0.0053619710      0.0008486027
 H      0.0047461688     -0.0016501708     -0.0012363635
 H      0.0035561350      0.0013562363     -0.0053001071
 H     -0.0078134239      0.0186017965     -0.0102141298
 H     -0.0459016804     -0.0089953715     -0.0084586835
 H     -0.0097640493      0.0320122028      0.0164100707
 H      0.0173745961      0.0128611191     -0.0221012811
 H      0.0009955291      0.0065172033      0.0026734761
 H      0.0192784000      0.0095182683      0.0113054654
 H     -0.0096895724     -0.0134132148      0.0081602243
 H      0.0063364846      0.0009890584     -0.0017695511
 H     -0.0187699912      0.0207415305      0.0053171572
 H      0.0316838707      0.0038675764      0.0175421605
 H      0.0235972237      0.0111462981      0.0001515907
 H     -0.0017178276      0.0027071785      0.0355771026
 H     -0.0067935024     -0.0175359950      0.0126314677
60
# ORCA AIMD Force Step 3, t=1.50 fs, E_Pot=-1207.41160013 Hartree, Unit is Hartree/Angstrom
 C     -0.0301887855      0.0595774691      0.0594157884
 C     -0.0028236973     -0.0446767919     -0.0349942750
 O     -0.0079682734      0.0029665462      0.0059143678
 C     -0.0589551213      0.0312105270     -0.0884572666
 C      0.0118210657     -0.0092416862      0.0130699113
 C     -0.0238105852     -0.0198270736     -0.0008105158
 C     -0.0662820181      0.0473718638     -0.0096214251
 O     -0.0387667830      0.0164400526     -0.0129736861
 B      0.0471049462     -0.0281874783     -0.0031639202
 C      0.0013634792      0.0283972916      0.0352281987
 C     -0.0187468799      0.0113876691      0.0003571848
 C      0.0255098377      0.0047996731      0.0013974937
 H     -0.0557740994      0.0078200946     -0.0297850545
 C      0.0487782713      0.0124514477      0.0345702108
 H     -0.0147446357     -0.0155488499     -0.0472245900
 C     -0.0181647083     -0.0019404914     -0.0063442762
 B     -0.0125789682     -0.0047491724     -0.0007773172
 O     -0.0182055253     -0.0080184977      0.0225693239
 C      0.0085063563     -0.0445452146     -0.0419697200
 C     -0.0052237103     -0.0306944981      0.0212798783
 C      0.0405156771     -0.0154200500      0.0049260455
 C      0.0227094789      0.0201235203     -0.0036577374
 C      0.0001929251     -0.0252405266     -0.0285332385
 C     -0.0223527285     -0.0232635980     -0.0419041391
 O      0.0074335894      0.0122173784      0.0269808833
 C     -0.0115320049     -0.0178456805     -0.0059455513
 C      0.0278349539      0.0143295844      0.0064694202
 H      0.0015252022      0.0036396655      0.0000695508
 C      0.0270776049      0.0336542176     -0.0054276408
 C     -0.0329757950     -0.0442626832     -0.0297308754
 C      0.0278628426      0.0186774185      0.0061956720
 H     -0.0216909877     -0.0428584058     -0.0003895363
 H      0.0036506405     -0.0033564547      0.0131011674
 H      0.0332102624     -0.0556192871     -0.0437738520
 H     -0.0001862034      0.0016530961     -0.0029761162
 H      0.0480506538     -0.0051301231     -0.0042426357
 H      0.0210411897     -0.0227082689      0.0743609500
 H      0.0011073510      0.0286819010      0.0172350855
 H     -0.0078773557      0.0118280666      0.0181551096
 H     -0.0059215471      0.0101058356     -0.0217115396
 H      0.0293739962      0.0118785775      0.0010279674
 H      0.0011144976      0.0105339120      0.0142292666
 H      0.0194315389      0.0039585014      0.0062355292
 H      0.0348343214     -0.0603052498     -0.0022362888
 H     -0.0109956293      0.0022319103     -0.0015668242
 H      0.0163490517      0.0008416270      0.0029328970
 H     -0.0017198292      0.0001980284      0.0000402924
 H     -0.0149680942      0.0364175172     -0.0201460177
 H     -0.0549396867     -0.0094418857     -0.0082591097
 H     -0.0128557269      0.0371249542      0.0170257311
 H      0.0197144079      0.0153986237     -0.0229583827
 H     -0.0029797758      0.0119545552      0.0128935678
 H      0.0197912377      0.0110072343      0.0093681501
 H     -0.0100336299     -0.0104306971      0.0078011170
 H      0.0065750970      0.0026823380      0.0071496289
 H     -0.0208752483      0.0209449488      0.0071193030
 H      0.0362686970      0.0023857992      0.0190675896
 H      0.0236259208      0.0113735759      0.0023958190
 H     -0.0019991608      0.0027566259      0.0398153589
 H     -0.0059816769     -0.0164735895      0.0110366409
60
# ORCA AIMD Force Step 4, t=2.00 fs, E_Pot=-1207.39861308 Hartree, Unit is Hartree/Angstrom
 C     -0.0382456710      0.0736817783      0.0783497804
 C     -0.0034114434     -0.0609199099     -0.0483885564
 O     -0.0170052633      0.0100134041      0.0074716499
 C     -0.0699956835      0.0434664846     -0.1102148246
 C      0.0169301571     -0.0130207360      0.0160198744
 C     -0.0296278659     -0.0214319718     -0.0016232216
 C     -0.0857286470      0.0543954876     -0.0097959067
 O     -0.0451362869      0.0210927208     -0.0121135657
 B      0.0605139699     -0.0344447713     -0.0016760673
 C     -0.0037989081      0.0363006820      0.0394984468
 C     -0.0217550160      0.0157834073      0.0062123932
 C      0.0254689554      0.0033313579     -0.0005539291
 H     -0.0604025405      0.0087253575     -0.0306614691
 C      0.0606461908      0.0130375747      0.0393823553
 H     -0.0158846588     -0.0156757755     -0.0513296609
 C     -0.0204400503      0.0014780896      0.0014358830
 B     -0.0143941386     -0.0059103808     -0.0038715542
 O     -0.0176797527     -0.0063611514      0.0299429197
 C      0.0113446469     -0.0593597906     -0.0537861020
 C     -0.0064062813     -0.0398781633      0.0253663724
 C      0.0477795066     -0.0158984569      0.0040502494
 C      0.0285944308      0.0263692574     -0.0039386620
 C      0.0025721169     -0.0351024871     -0.0338304887
 C     -0.0261837828     -0.0251357294     -0.0533932546
 O      0.0064799512      0.0122457251      0.0300816309
 C     -0.0144954929     -0.0247870355     -0.0170758695
 C      0.0360209323      0.0199278969      0.0122371918
 H     -0.0029815113      0.0009077849     -0.0047289869
 C      0.0325024909      0.0361554254     -0.0048893856
 C     -0.0415452698     -0.0542291894     -0.0330133883
 C      0.0299154129      0.0217174769      0.0064746185
 H     -0.0225211316     -0.0449468474      0.0024887524
 H     -0.0023946671     -0.0034620875      0.0152473453
 H      0.0450794720     -0.0744144333     -0.0602360511
 H      0.0025921342      0.0087662708     -0.0052862013
 H      0.0511830485     -0.0044705166     -0.0064975104
 H      0.0267659808     -0.0312317278      0.0991826872
 H      0.0033236143      0.0300310572      0.0170513935
 H     -0.0107625190      0.0116588179      0.0167008321
 H     -0.0117589819      0.0083694631     -0.0219880493
 H      0.0431820737      0.0151861074      0.0035465986
 H      0.0022638327      0.0105946987      0.0104641974
 H      0.0310125523      0.0052419956      0.0107270256
 H      0.0414925849     -0.0656163747     -0.0036993786
 H     -0.0071188998     -0.0011509483     -0.0040590821
 H      0.0271538638      0.0033702393      0.0068585968
 H     -0.0071251942     -0.0010738783      0.0056137695
 H     -0.0213344493      0.0516938706     -0.0285306233
 H     -0.0605871092     -0.0088267415     -0.0071644271
 H     -0.0154807545      0.0399277472      0.0160457138
 H      0.0208006429      0.0172095489     -0.0221538927
 H     -0.0065605202      0.0168714889      0.0222458946
 H      0.0189743819      0.0118597102      0.0064556593
 H     -0.0097436778     -0.0065135999      0.0069458273
 H      0.0067261602      0.0042299139      0.0156655349
 H     -0.0216838603      0.0196140484      0.0087473712
 H      0.0384490143      0.0004451793      0.0191505039
 H      0.0219002901      0.0108147112      0.0046844330
 H     -0.0025307004      0.0029630202      0.0413330808
 H     -0.0046786769     -0.0142927611      0.0085870691
60
# ORCA AIMD Force Step 5, t=2.50 fs, E_Pot=-1207.38728755 Hartree, Unit is Hartree/Angstrom
 C     -0.0421323827      0.0802722604      0.0894802969
 C     -0.0034550822     -0.0771497642     -0.0615539937
 O     -0.0261878026      0.0174893369      0.0093122811
 C     -0.0765527305      0.0529283337     -0.1188334585
 C      0.0219976654     -0.0169053812      0.0188089678
 C     -0.0316098674     -0.0216366160     -0.0015509513
 C     -0.1005607844      0.0583023526     -0.0079499221
 O     -0.0508280649      0.0253399667     -0.0113027029
 B      0.0730106701     -0.0400680966      0.0001750104
 C     -0.0088090025      0.0437847942      0.0434306778
 C     -0.0249767035      0.0201433529      0.0120581368
 C      0.0220612288      0.0019628384     -0.0043165970
 H     -0.0614135466      0.0097251141     -0.0296112619
 C      0.0709181675      0.0123042700      0.0410038633
 H     -0.0159960196     -0.0145521904     -0.0521279986
 C     -0.0223192042      0.0049107184      0.0092260526
 B     -0.0160241170     -0.0069759183     -0.0070081491
 O     -0.0169723937     -0.0046935162      0.0369888809
 C      0.0140607441     -0.0739125357     -0.0652528976
 C     -0.0078447799     -0.0438630408      0.0276056601
 C      0.0524496094     -0.0144287306      0.0022462415
 C      0.0342971376      0.0323180042     -0.0040566839
 C      0.0047468555     -0.0442077794     -0.0359126035
 C     -0.0290087590     -0.0248065870     -0.0619957109
 O      0.0054389785      0.0121824996      0.0329390966
 C     -0.0158784357     -0.0308746195     -0.0282080915
 C      0.0437778160      0.0254803049      0.0177366315
 H     -0.0072486155     -0.0017122536     -0.0092789684
 C      0.0375139831      0.0377880964     -0.0020728399
 C     -0.0497589812     -0.0642402388     -0.0348538942
 C      0.0300314837      0.0219984571      0.0058896558
 H     -0.0214721482     -0.0444425685      0.0059914511
 H     -0.0082423626     -0.0035206427      0.0169775593
 H      0.0524973395     -0.0852602553     -0.0691253870
 H      0.0052685074      0.0153813979     -0.0074252996
 H      0.0511170738     -0.0031925309     -0.0087410332
 H      0.0306336741     -0.0361307215      0.1121869803
 H      0.0058437100      0.0295687115      0.0155233175
 H     -0.0133360131      0.0109438151      0.0141790212
 H     -0.0177579994      0.0059679461     -0.0212295908
 H      0.0531231336      0.0182466128      0.0052181824
 H      0.0034455248      0.0100590174      0.0058222069
 H      0.0397412591      0.0062941547      0.0140856701
 H      0.0464267891     -0.0669528289     -0.0052006255
 H     -0.0028764591     -0.0045918637     -0.0065249583
 H      0.0360580373      0.0056365877      0.0099960712
 H     -0.0122644618     -0.0023099237      0.0109959033
 H     -0.0257977800      0.0621244361     -0.0339081662
 H     -0.0628406543     -0.0072533541     -0.0052344944
 H     -0.0175964462      0.0403688666      0.0134652418
 H      0.0206066495      0.0182443711     -0.0197070190
 H     -0.0092475138      0.0210297017      0.0296374571
 H      0.0168512282      0.0120625054      0.0026660026
 H     -0.0088868394     -0.0018534642      0.0056553572
 H      0.0070348598      0.0055384820      0.0229834241
 H     -0.0211650543      0.0167436118      0.0101200548
 H      0.0381837299     -0.0018746650      0.0178227115
 H      0.0184589393      0.0094981705      0.0069397087
 H     -0.0032763647      0.0033212599      0.0400910341
 H     -0.0029732502     -0.0111559939      0.0054165489
60
# ORCA AIMD Force Step 6, t=3.00 fs, E_Pot=-1207.37951505 Hartree, Unit is Hartree/Angstrom
 C     -0.0402587321      0.0775365778      0.0898256721
 C     -0.0029748287     -0.0931209188     -0.0743092300
 O     -0.0354066732      0.0252568685      0.0114302437
 C     -0.0785667322      0.0581632504     -0.1110653610
 C      0.0269617080     -0.0209156479      0.0214099664
 C     -0.0287453540     -0.0206566361      0.0000441526
 C     -0.1093452080      0.0592167712     -0.0036984569
 O     -0.0558537179      0.0291944821     -0.0105332073
 B      0.0845033700     -0.0450326587      0.0023675287
 C     -0.0136117943      0.0507955576      0.0469674561
 C     -0.0280262304      0.0242289523      0.0177476582
 C      0.0152804553      0.0007395697     -0.0098171647
 H     -0.0587580921      0.0107991308     -0.0266707477
 C      0.0794692249      0.0102640204      0.0394099569
 H     -0.0150467254     -0.0122187505     -0.0495755153
 C     -0.0238067512      0.0082981530      0.0168069290
 B     -0.0174505749     -0.0079120858     -0.0101229616
 O     -0.0161062072     -0.0030653377      0.0436544765
 C      0.0166124626     -0.0879904383     -0.0762665920
 C     -0.0098655932     -0.0408583588      0.0278076565
 C      0.0544553558     -0.0109200922     -0.0003984973
 C      0.0398079874      0.0378924705     -0.0039973321
 C      0.0063085529     -0.0521368580     -0.0340775387
 C     -0.0310391846     -0.0223240520     -0.0669333780
 O      0.0043132943      0.0120325536      0.0355371346
 C     -0.0157244706     -0.0360778687     -0.0390427448
 C      0.0506148736      0.0306326047      0.0224948363
 H     -0.0108095059     -0.0038943473     -0.0131592183
 C      0.0420736159      0.0385615302      0.0029996260
 C     -0.0574610900     -0.0740200899     -0.0354141525
 C      0.0281956066      0.0194934449      0.0044983649
 H     -0.0185370858     -0.0413289853      0.0100256170
 H     -0.0134713308     -0.0036094451      0.0183497797
 H      0.0537217559     -0.0857179914     -0.0676870525
 H      0.0075626529      0.0208976405     -0.0093274987
 H      0.0479302920     -0.0013437062     -0.0108336875
 H      0.0325472400     -0.0359425809      0.1100177430
 H      0.0086073956      0.0272857049      0.0126410258
 H     -0.0155299835      0.0097397533      0.0107044982
 H     -0.0236566048      0.0030568459     -0.0195877985
 H      0.0579024213      0.0210363721      0.0054645065
 H      0.0046351192      0.0090087309      0.0005846465
 H      0.0443335719      0.0070925920      0.0156117163
 H      0.0495394285     -0.0644711295     -0.0067195520
 H      0.0013126832     -0.0078745776     -0.0088538309
 H      0.0420272049      0.0073167491      0.0118136229
 H     -0.0167059500     -0.0033329891      0.0157163303
 H     -0.0273830756      0.0659438591     -0.0351405379
 H     -0.0616695438     -0.0048082667     -0.0025148626
 H     -0.0191691997      0.0384336681      0.0093003661
 H      0.0191395829      0.0184761055     -0.0156897399
 H     -0.0106076843      0.0242616127      0.0340959196
 H      0.0135089083      0.0116351705     -0.0018531139
 H     -0.0075758620      0.0032866251      0.0040297438
 H      0.0077482573      0.0065415576      0.0283512424
 H     -0.0193414880      0.0123939015      0.0111660799
 H      0.0354604524     -0.0044908739      0.0151360095
 H      0.0134264264      0.0074904536      0.0090827894
 H     -0.0041995785      0.0038228788      0.0361108773
 H     -0.0009921194     -0.0073103512      0.0017224381
60
# ORCA AIMD Force Step 7, t=3.50 fs, E_Pot=-1207.37557048 Hartree, Unit is Hartree/Angstrom
 C     -0.0324897380      0.0661954083      0.0790872675
 C     -0.0020223349     -0.1085069029     -0.0864137963
 O     -0.0444973799      0.0331122266      0.0137654718
 C     -0.0762837195      0.0589414556     -0.0877007281
 C      0.0317415983     -0.0250361495      0.0237748031
 C     -0.0207946159     -0.0187721076      0.0035741830
 C     -0.1111294839      0.0569960989      0.0030183818
 O     -0.0602027333      0.0326472593     -0.0097928977
 B      0.0948703318     -0.0493032095      0.0048587154
 C     -0.0181420256      0.0572414739      0.0500467268
 C     -0.0304582572      0.0277899728      0.0231157095
 C      0.0050596135     -0.0003052548     -0.0169879826
 H     -0.0523080912      0.0119334288     -0.0218416575
 C      0.0861481873      0.0069370831      0.0345385595
 H     -0.0130057119     -0.0087124523     -0.0436078018
 C     -0.0249105859      0.0115375419      0.0239183648
 B     -0.0186453014     -0.0086833727     -0.0131284996
 O     -0.0151113693     -0.0015248293      0.0498464687
 C      0.0189702874     -0.1012922534     -0.0866450929
 C     -0.0125816434     -0.0303206846      0.0263663001
 C      0.0536503627     -0.0054098293     -0.0037632897
 C      0.0450617164      0.0429859288     -0.0037613004
 C      0.0069832206     -0.0585007636     -0.0280701812
 C     -0.0324036830     -0.0178778878     -0.0676159760
 O      0.0031167665      0.0117926037      0.0378516426
 C     -0.0141807190     -0.0403715917     -0.0492247353
 C      0.0560371063      0.0350380693      0.0260680860
 H     -0.0132200491     -0.0053287708     -0.0159797951
 C      0.0461295466      0.0385114306      0.0102049958
 C     -0.0644339057     -0.0831869868     -0.0349131647
 C      0.0244261975      0.0142408446      0.0023747387
 H     -0.0137568389     -0.0356594086      0.0144779707
 H     -0.0176673109     -0.0038043803      0.0194470811
 H      0.0484778809     -0.0759228422     -0.0558187332
 H      0.0091865485      0.0247427905     -0.0109368897
 H      0.0416742993      0.0010278566     -0.0126278407
 H      0.0327801988     -0.0304946331      0.0932417436
 H      0.0115329321      0.0232597898      0.0084752514
 H     -0.0172834586      0.0081461811      0.0064672760
 H     -0.0291680292     -0.0001595832     -0.0172802721
 H      0.0569695618      0.0235043517      0.0039277330
 H      0.0058065539      0.0075777997     -0.0048615398
 H      0.0440430103      0.0076329388      0.0148345240
 H      0.0506738328     -0.0581532769     -0.0082362079
 H      0.0049919906     -0.0107714380     -0.0109359177
 H      0.0442816760      0.0081194241      0.0118968873
 H     -0.0200084428     -0.0039550761      0.0192890151
 H     -0.0255857738      0.0625380757     -0.0318146754
 H     -0.0570068959     -0.0015697458      0.0009591700
 H     -0.0201759260      0.0341722342      0.0036098377
 H      0.0164594648      0.0179136151     -0.0102626016
 H     -0.0103679322      0.0264855839      0.0349671266
 H      0.0091330935      0.0106443419     -0.0068771234
 H     -0.0059844535      0.0085461302      0.0022227203
 H      0.0090704526      0.0072048096      0.0311588385
 H     -0.0163207386      0.0067335178      0.0118290114
 H      0.0303184726     -0.0073054331      0.0111788230
 H      0.0070446984      0.0049171660      0.0110290172
 H     -0.0052602453      0.0044529505      0.0295076936
 H      0.0010934930     -0.0030994974     -0.0022271625
60
# ORCA AIMD Force Step 8, t=4.00 fs, E_Pot=-1207.37401876 Hartree, Unit is Hartree/Angstrom
 C     -0.0202002293      0.0493766470      0.0597047287
 C     -0.0006841052     -0.1230631626     -0.0977316687
 O     -0.0533187680      0.0408780136      0.0162988869
 C     -0.0701566940      0.0562886820     -0.0532438186
 C      0.0362605105     -0.0292751601      0.0258910376
 C     -0.0083564455     -0.0162848124      0.0091357878
 C     -0.1057124754      0.0512073092      0.0118383521
 O     -0.0639005071      0.0357362373     -0.0090644425
 B      0.1040163696     -0.0528556225      0.0076024922
 C     -0.0223869373      0.0631364273      0.0526089585
 C     -0.0318800416      0.0306087045      0.0280596823
 C     -0.0086455557     -0.0011622380     -0.0258312741
 H     -0.0419748425      0.0131227526     -0.0151386674
 C      0.0908650956      0.0022608768      0.0263745640
 H     -0.0098500754     -0.0040607435     -0.0341578343
 C     -0.0256967932      0.0146395902      0.0303968995
 B     -0.0196263054     -0.0092671615     -0.0159841527
 O     -0.0140177928     -0.0001320459      0.0555831943
 C      0.0210298691     -0.1135991517     -0.0963065278
 C     -0.0158607535     -0.0132552299      0.0242109106
 C      0.0497781788      0.0020437327     -0.0077482733
 C      0.0501304932      0.0475302688     -0.0033601173
 C      0.0067509301     -0.0630737016     -0.0182033476
 C     -0.0330798918     -0.0117460021     -0.0638661170
 O      0.0018464585      0.0115056112      0.0398878145
 C     -0.0114898584     -0.0438840943     -0.0585387102
 C      0.0596898855      0.0383582240      0.0280939248
 H     -0.0140880215     -0.0057417191     -0.0174258868
 C      0.0496357258      0.0376059527      0.0193552840
 C     -0.0704814917     -0.0912533407     -0.0337326133
 C      0.0188302877      0.0063500043     -0.0003623305