60
# ORCA AIMD Position Step 0, t=0.00 fs, E_Pot=-1207.43571284 Hartree, Unit is Angstrom
 C      0.5643650025     -1.6596870074     -5.9355970266
 C      0.8323990037     -2.0831200093     -4.4920640201
 O      0.3811490017     -1.0235030046     -3.6060550162
 C      0.0071240000     -3.3280380149     -4.1456860186
 C      2.3709110106     -2.2244980100     -4.1124860184
 C      2.8886480129     -3.6597770164     -4.0570300182
 C      3.2882660147     -1.3629250061     -4.9879490223
 O      2.4236390109     -1.6868910076     -2.7657020124
 B      1.2797830057     -0.9454510042     -2.5548360114
 C      1.0139330045     -0.1117350005     -1.2773410057
 C      2.0599260092      0.1384430006     -0.3959440018
 C      2.1124230095      1.1001920049      0.6566950029
 H      3.0628430137      1.1568560052      1.2128700054
 C      0.9509160043      1.8338050082      1.2708140057
 H      1.2246590055      2.2380340100      2.2568970101
 C     -0.4124940018      1.2242150055      1.2864350058
 B     -1.1706590052      1.1869260053      2.6388420118
 O     -0.6678730030      1.7569150079      3.7926330170
 C     -1.5284170068      1.3598800061      4.8945710219
 C     -1.6841570075      2.5525960114      5.8351870261
 C     -0.8292940037      0.2032850009      5.6188580252
 C     -2.8629770128      0.9166410041      4.1523410186
 C     -3.8781110174      2.0553660092      4.0019780179
 C     -3.5421080159     -0.3162610014      4.7430310212
 O     -2.3951330107      0.5802800026      2.8202500126
 C     -0.9718870044      0.6719860030      0.1813680008
 C     -0.3394130015      0.5844700026     -1.1799700053
 H     -1.0431890047      0.0919760004     -1.8750830084
 C      0.1782330008      1.8525920083     -1.8108750081
 C      0.9360610042      2.8058000126     -1.1711010052
 C      1.4179890064      2.7417750123      0.1759500008
 H      2.0557670092      3.5812900160      0.4939120022
 H     -0.5277340024     -1.5803860071     -6.1049530273
 H      0.9698410043     -2.4009990108     -6.6535970298
 H      1.0127940045     -0.6739890030     -6.1559760276
 H     -1.0684990048     -3.0912600138     -4.2621050191
 H      0.1711370008     -3.6412700163     -3.0965570139
 H      0.2488990011     -4.1809660187     -4.8089610215
 H      2.7924350125     -4.1619120186     -5.0398200226
 H      2.3453610105     -4.2529000190     -3.2987820148
 H      3.9594510177     -3.6543660164     -3.7733550169
 H      3.3584130150     -1.7593380079     -6.0203500270
 H      4.3041380193     -1.3571870061     -4.5471240204
 H      2.9329020131     -0.3155140014     -5.0360970226
 H      3.0146640135     -0.3594440016     -0.6345570028
 H     -0.7067280032      2.7936910125      6.2979530282
 H     -2.4030500108      2.3283240104      6.6483020298
 H     -2.0324280091      3.4514070155      5.2943230237
 H      0.1760690008      0.5341500024      5.9451040266
 H     -0.6996150031     -0.6707910030      4.9518550222
 H     -1.3977220063     -0.1181340005      6.5132720292
 H     -4.3352170194      2.3244010104      4.9742440223
 H     -4.6840380210      1.7279230077      3.3167780149
 H     -3.4120060153      2.9614600133      3.5685720160
 H     -3.8390860172     -0.1411620006      5.7962400260
 H     -2.8796800129     -1.1999730054      4.7008560211
 H     -4.4549050200     -0.5509620025      4.1608650186
 H     -1.9725530088      0.2214850010      0.2943540013
 H      0.0572560003      1.9180400086     -2.9020550130
 H      1.3465800060      3.6182350162     -1.7933420080
60
# ORCA AIMD Position Step 1, t=0.50 fs, E_Pot=-1207.43216578 Hartree, Unit is Angstrom
 C      0.5684853959     -1.6591873539     -5.9335863041
 C      0.8319160288     -2.0743439809     -4.4835662700
 O      0.3853188451     -1.0229607674     -3.6056854481
 C      0.0129940869     -3.3323061084     -4.1420560850
 C      2.3674690215     -2.2206323536     -4.1144870778
 C      2.8855419750     -3.6557372042     -4.0585623517
 C      3.2904684337     -1.3649036151     -4.9894111834
 O      2.4270115412     -1.6883963910     -2.7660663346
 B      1.2753296320     -0.9430694711     -2.5546872426
 C      1.0157823096     -0.1184557158     -1.2789838179
 C      2.0625011278      0.1377280447     -0.3995307260
 C      2.1138428640      1.0980361636      0.6579181649
 H      3.0809329300      1.1503217631      1.2158922075
 C      0.9464348171      1.8339763586      1.2689599482
 H      1.2258956129      2.2362935037      2.2690603918
 C     -0.4097185348      1.2224105474      1.2861211369
 B     -1.1692199089      1.1863613630      2.6394594764
 O     -0.6684292031      1.7600450374      3.7878965612
 C     -1.5289958577      1.3674522530      4.8994062622
 C     -1.6818093753      2.5524818983      5.8339000250
 C     -0.8338447156      0.2005438651      5.6170870719
 C     -2.8657568128      0.9165121300      4.1527278501
 C     -3.8766585658      2.0588816091      4.0013473661
 C     -3.5393516942     -0.3130475901      4.7462785506
 O     -2.3942555762      0.5788005474      2.8189721133
 C     -0.9705705339      0.6802367040      0.1830015798
 C     -0.3404698573      0.5835528370     -1.1802340910
 H     -1.0439619463      0.0903470333     -1.8681503525
 C      0.1744935382      1.8546289654     -1.8105841361
 C      0.9383879321      2.8116722929     -1.1685074937
 C      1.4149733920      2.7430166848      0.1769094664
 H      2.0585980910      3.5941966461      0.4852959019
 H     -0.5162135730     -1.5694856175     -6.1241494279
 H      0.9672752532     -2.3771110934     -6.6401171814
 H      1.0205593627     -0.6776398228     -6.1417099149
 H     -1.0770798769     -3.0954256818     -4.2472488610
 H      0.1617113920     -3.6464906909     -3.1178739790
 H      0.2399907917     -4.1880311382     -4.8156401616
 H      2.8109871302     -4.1664194905     -5.0405429273
 H      2.3556522935     -4.2513700797     -3.2907709702
 H      3.9398497405     -3.6580770561     -3.7612758475
 H      3.3549124325     -1.7669635178     -6.0200351169
 H      4.2922487498     -1.3598383865     -4.5448837150
 H      2.9099570199     -0.3046598295     -5.0331258768
 H      3.0206477551     -0.3521848211     -0.6316874976
 H     -0.7169546119      2.7974400060      6.2985138717
 H     -2.3952471066      2.3222445713      6.6440741650
 H     -2.0330815688      3.4338617211      5.3004200064
 H      0.1913595218      0.5227638752      5.9405501347
 H     -0.6948045807     -0.6828837713      4.9486958692
 H     -1.4077690205     -0.1324553228      6.5108331872
 H     -4.3319234082      2.3123800953      4.9681814975
 H     -4.6883028863      1.7229516320      3.3221222018
 H     -3.4060864171      2.9602701283      3.5640812577
 H     -3.8442315796     -0.1480651570      5.7917830733
 H     -2.8734666997     -1.1982514305      4.6869318555
 H     -4.4641009134     -0.5382145978      4.1609013982
 H     -1.9766102218      0.2312364123      0.2858292468
 H      0.0602605251      1.9187928464     -2.9107923787
 H      1.3471265037      3.6271705212     -1.7891990685
60
# ORCA AIMD Position Step 2, t=1.00 fs, E_Pot=-1207.42359472 Hartree, Unit is Angstrom
 C      0.5725525171     -1.6585693772     -5.9314945697
 C      0.8314323326     -2.0656336399     -4.4751086665
 O      0.3895294154     -1.0224570389     -3.6053008839
 C      0.0187293661     -3.3365449955     -4.1385740707
 C      2.3640341852     -2.2167745307     -4.1164521613
 C      2.8823993532     -3.6517609771     -4.0600906648
 C      3.2925627602     -1.3667596146     -4.9909024042
 O      2.4302876209     -1.6898784996     -2.7664918124
 B      1.2709827309     -0.9407710483     -2.5545690010
 C      1.0176976097     -0.1251170639     -1.2804859940
 C      2.0649984307      0.1370308339     -0.4031786690
 C      2.1153469952      1.0959216151      0.6591388410
 H      3.0967145808      1.1442017381      1.2174865472
 C      0.9420646377      1.8341873176      1.2671893122
 H      1.2265122051      2.2338123438      2.2793258059
 C     -0.4070097617      1.2205584184      1.2856920230
 B     -1.1678314506      1.1857825753      2.6401079733
 O     -0.6690622455      1.7631312675      3.7831863154
 C     -1.5295607764      1.3749477353      4.9041478547
 C     -1.6794727503      2.5523345964      5.8326654252
 C     -0.8382978624      0.1977498765      5.6153350294
 C     -2.8684812291      0.9164216330      4.1531000086
 C     -3.8752236705      2.0623715994      4.0006510791
 C     -3.5366528565     -0.3099043692      4.7494534568
 O     -2.3933403612      0.5773689891      2.8177760590
 C     -0.9692590264      0.6884830243      0.1847191496
 C     -0.3414623612      0.5826579703     -1.1805210121
 H     -1.0441080941      0.0892585818     -1.8606350485
 C      0.1708347842      1.8568096076     -1.8102924660
 C      0.9406329028      2.8174105557     -1.1660141213
 C      1.4120552492      2.7442844418      0.1778852298
 H      2.0604840265      3.6050819466      0.4764186866
 H     -0.5037219880     -1.5587585453     -6.1428661647
 H      0.9650597313     -2.3538098901     -6.6268709288
 H      1.0279946578     -0.6820672390     -6.1273167649
 H     -1.0835836987     -3.0998823885     -4.2324015506
 H      0.1526770362     -3.6518859223     -3.1384674749
 H      0.2309313341     -4.1937376771     -4.8214162500
 H      2.8294508269     -4.1702455374     -5.0401134881
 H      2.3662345291     -4.2491090563     -3.2839130237
 H      3.9200354809     -3.6614875720     -3.7494612602
 H      3.3513446668     -1.7740401335     -6.0185229628
 H      4.2799379039     -1.3624352659     -4.5428540427
 H      2.8880871772     -0.2961838334     -5.0301237899
 H      3.0255704351     -0.3443955037     -0.6286148142
 H     -0.7276200986      2.8009392380      6.2987379731
 H     -2.3868948535      2.3163104564      6.6391891702
 H     -2.0337900495      3.4163358346      5.3065133317
 H      0.2044745059      0.5108899436      5.9354914315
 H     -0.6903993914     -0.6933745749      4.9464623222
 H     -1.4169199363     -0.1461550342      6.5071149744
 H     -4.3283092523      2.3004065581      4.9616343625
 H     -4.6914323386      1.7184616783      3.3282651639
 H     -3.4007289755      2.9580808802      3.5601085297
 H     -3.8490019160     -0.1550206961      5.7866491339
 H     -2.8682561636     -1.1952866705      4.6732228274
 H     -4.4716869481     -0.5251459020      4.1618874928
 H     -1.9792464961      0.2416539487      0.2771710047
 H      0.0631548243      1.9197294992     -2.9176628365
 H      1.3472135471      3.6349783915     -1.7841877425
60
# ORCA AIMD Position Step 3, t=1.50 fs, E_Pot=-1207.41160013 Hartree, Unit is Angstrom
 C      0.5765182043     -1.6577248161     -5.9291964087
 C      0.8309382650     -2.0570607329     -4.4667503302
 O      0.3937526991     -1.0219667754     -3.6048964561
 C      0.0242374788     -3.3406942119     -4.1354074753
 C      2.3606285537     -2.2129384690     -4.1183669498
 C      2.8791646098     -3.6478673646     -4.0616211617
 C      3.2944218154     -1.3684177952     -4.9924402682
 O      2.4334406758     -1.6913171707     -2.7669752622
 B      1.2668261168     -0.9385972037     -2.5544765308
 C      1.0196533137     -0.1316829502     -1.2818236526
 C      2.0674122848      0.1363713277     -0.4068640033
 C      2.1169754821      1.0938369150      0.6603700058
 H      3.1094339440      1.1385270524      1.2173304205
 C      0.9378787117      1.8344562931      1.2655601554
 H      1.2263082208      2.2304052276      2.2870168865
 C     -0.4043798500      1.2186732537      1.2851858907
 B     -1.1665043572      1.1851810785      2.6407713652
 O     -0.6697727957      1.7661847932      3.7785269747
 C     -1.5300963960      1.3822975164      4.9087363598
 C     -1.6771524746      2.5520848181      5.8315149459
 C     -0.8425929803      0.1948777210      5.6136054134
 C     -2.8711205623      0.9164056313      4.1534552580
 C     -3.8737961584      2.0657868166      3.9998387560
 C     -3.5340426345     -0.3068594548      4.7524801309
 O     -2.3923890388      0.5759839538      2.8166745216
 C     -0.9679830210      0.6966921979      0.1864673041
 C     -0.3423494663      0.5818103501     -1.1808037575
 H     -1.0438734363      0.0885711508     -1.8527954847
 C      0.1672843925      1.8591607418     -1.8100205183
 C      0.9427505763      2.8229725719     -1.1636516137
 C      1.4092615016      2.7456257953      0.1788905326
 H      2.0611350278      3.6134994663      0.4673553193
 H     -0.4905835156     -1.5482124073     -6.1609381709
 H      0.9640955402     -2.3325870687     -6.6151418356
 H      1.0352620841     -0.6868561998     -6.1129294040
 H     -1.0873870965     -3.1046831452     -4.2176595869
 H      0.1445306450     -3.6581130010     -3.1562865612
 H      0.2218024453     -4.1977880775     -4.8261522810
 H      2.8476446372     -4.1733346070     -5.0384779767
 H      2.3768089099     -4.2461213452     -3.2783641654
 H      3.9010499691     -3.6643613365     -3.7377326304
 H      3.3477703514     -1.7804911779     -6.0159049338
 H      4.2680236930     -1.3648760903     -4.5407313089
 H      2.8678985985     -0.2909960901     -5.0271698439
 H      3.0295809730     -0.3362394817     -0.6254800401
 H     -0.7379996954      2.8043386098      6.2988819718
 H     -2.3782923748      2.3104516745      6.6339479043
 H     -2.0350094358      3.3999839445      5.3119542432
 H      0.2146261379      0.4984034502      5.9298701719
 H     -0.6866209961     -0.7018016753      4.9452935985
 H     -1.4249583977     -0.1590465422      6.5019478210
 H     -4.3246222344      2.2888314789      4.9552470783
 H     -4.6933119603      1.7145823099      3.3351586489
 H     -3.3959913744      2.9550124218      3.5566589981
 H     -3.8533697003     -0.1619270889      5.7813885260
 H     -2.8642577293     -1.1909632703      4.6598302035
 H     -4.4772242814     -0.5117962839      4.1640193052
 H     -1.9803503160      0.2528210526      0.2685035633
 H      0.0659435197      1.9208446928     -2.9222292226
 H      1.3468579250      3.6416603263     -1.7783419477
60
# ORCA AIMD Position Step 4, t=2.00 fs, E_Pot=-1207.39861308 Hartree, Unit is Angstrom
 C      0.5803373795     -1.6565498873     -5.9265618543
 C      0.8304263807     -2.0486917943     -4.4585439438
 O      0.3979632946     -1.0214619814     -3.6044657833
 C      0.0294488376     -3.3446921920     -4.1327103730
 C      2.3572714829     -2.2091347921     -4.1202192483
 C      2.8757840572     -3.6440638477     -4.0631633754
 C      3.2959266316     -1.3698243674     -4.9940381482
 O      2.4364492996     -1.6926950749     -2.7675143631
 B      1.2629364371     -0.9365845824     -2.5544028776
 C      1.0216257853     -0.1381245009     -1.2829746990
 C      2.0697349247      0.1357710648     -0.4105649035
 C      2.1187514490      1.0917685944      0.6616146796
 H      3.1185733289      1.1333358142      1.2152294389
 C      0.9339400796      1.8347947538      1.2641126204
 H      1.2251408635      2.2259670164      2.2916621197
 C     -0.4018369363      1.2167684962      1.2846425993
 B     -1.1652475141      1.1845478166      2.6414331802
 O     -0.6705615919      1.7692198624      3.7739382935
 C     -1.5305879663      1.3894382344      4.9131167809
 C     -1.6748497811      2.5516657146      5.8304755628
 C     -0.8466865842      0.1919074418      5.6118945575
 C     -2.8736480471      0.9164997857      4.1537921602
 C     -3.8723608022      2.0690800100      3.9988662719
 C     -3.5315424450     -0.3039274958      4.7552916542
 O     -2.3914026236      0.5746425752      2.8156787019
 C     -0.9667641185      0.7048426486      0.1881912022
 C     -0.3430883155      0.5810371941     -1.1810524092
 H     -1.0435381106      0.0881180174     -1.8449141069
 C      0.1638654451      1.8617074052     -1.8097770090
 C      0.9446976844      2.8283185725     -1.1614407324
 C      1.4066070972      2.7470758372      0.1799345538
 H      2.0603733230      3.6191595795      0.4582234332
 H     -0.4771442919     -1.5378352067     -6.1782409713
 H      0.9652944456     -2.3148936898     -6.6062141560
 H      1.0425519107     -0.6915600306     -6.0986678915
 H     -1.0880722440     -3.1098415781     -4.2031244533
 H      0.1377189087     -3.6658518881     -3.1693367265
 H      0.2127024303     -4.1999856280     -4.8297858718
 H      2.8654107866     -4.1756663294     -5.0356496792
 H      2.3870470604     -4.2424598064     -3.2742060672
 H      3.8838914702     -3.6664734331     -3.7258811383
 H      3.3442517862     -1.7862853313     -6.0123456927
 H      4.2573211583     -1.3670701429     -4.5381914805
 H      2.8498877156     -0.2897198898     -5.0243478186
 H      3.0328928794     -0.3278990008     -0.6224326300
 H     -0.7473615177      2.8078090786      6.2992180895
 H     -2.3697612500      2.3045779618      6.6286843479
 H     -2.0372116086      3.3859313298      5.3161060653
 H      0.2212400463      0.4852413027      5.9236831015
 H     -0.6836637475     -0.7078456454      4.9452306115
 H     -1.4317482919     -0.1709942549      6.4952575735
 H     -4.3211121803      2.2779816551      4.9496710062
 H     -4.6939087169      1.7114029541      3.3426963825
 H     -3.3918861569      2.9512485476      3.5537022552
 H     -3.8573290861     -0.1686912393      5.7765695721
 H     -2.8616028409     -1.1852522073      4.6468385895
 H     -4.4804206337     -0.4982274685      4.1674058223
 H     -1.9799172868      0.2647836216      0.2599512896
 H      0.0686149863      1.9221451176     -2.9242185153
 H      1.3461101796      3.6472987767     -1.7717479810
60
# ORCA AIMD Position Step 5, t=2.50 fs, E_Pot=-1207.38728755 Hartree, Unit is Angstrom
 C      0.5839770836     -1.6549613614     -5.9234764872
 C      0.8298917097     -2.0405905565     -4.4505377972
 O      0.4021373231     -1.0209119298     -3.6040009114
 C      0.0343175971     -3.3484834786     -4.1305965224
 C      2.3539806093     -2.2053723127     -4.1219983803
 C      2.8722140742     -3.6403476778     -4.0647267562
 C      3.2969730607     -1.3709436810     -4.9957024775
 O      2.4392959309     -1.6939970550     -2.7681076448
 B      1.2593847300     -0.9347659376     -2.5543388563
 C      1.0235930961     -0.1444181008     -1.2839181881
 C      2.0719566714      0.1352526254     -0.4142611432
 C      2.1206812714      1.0897021073      0.6628662100
 H      3.1238365319      1.1286737276      1.2111072457
 C      0.9303028696      1.8352074361      1.2628696485
 H      1.2229257581      2.2204687083      2.2929885842
 C     -0.3993859498      1.2148567045      1.2841028666
 B     -1.1640684262      1.1838734899      2.6420766558
 O     -0.6714294807      1.7722528608      3.7694364625
 C     -1.5310212023      1.3963100461      4.9172369304
 C     -1.6725639283      2.5510244871      5.8295670891
 C     -0.8505505913      0.1888263205      5.6101923213
 C     -2.8760387429      0.9167393639      4.1541101314
 C     -3.8708999223      2.0722067956      3.9977004449
 C     -3.5291660355     -0.3011101338      4.7578325878
 O     -2.3903816757      0.5733409712      2.8147988685
 C     -0.9656150549      0.7129219047      0.1898351190
 C     -0.3436354098      0.5803672257     -1.1812358984
 H     -1.0433950367      0.0877206282     -1.8372792284
 C      0.1605976408      1.8644726827     -1.8095583894
 C      0.9464323344      2.8334095472     -1.1593934019
 C      1.4040957203      2.7486565607      0.1810223985
 H      2.0581332328      3.6219262721      0.4491816479
 H     -0.4637547729     -1.5276018383     -6.1946845345
 H      0.9694499742     -2.3019245187     -6.6011534570
 H      1.0500691566     -0.6957281599     -6.0846385815
 H     -1.0854167231     -3.1153332850     -4.1888985366
 H      0.1326028545     -3.6756940915     -3.1760065322
 H      0.2037473489     -4.2002373556     -4.8323336084
 H      2.8826145801     -4.1772543893     -5.0317070709
 H      2.3965978599     -4.2382219992     -3.2714523891
 H      3.8694196017     -3.6676095231     -3.7137035610
 H      3.3408532460     -1.7914329176     -6.0080740522
 H      4.2485609936     -1.3689389414     -4.5349301751
 H      2.8344462352     -0.2927232443     -5.0217452056
 H      3.0357657155     -0.3195674531     -0.6196263561
 H     -0.7550225742      2.8115274702      6.3000052634
 H     -2.3616281118      2.2985873451      6.6237459468
 H     -2.0408260392      3.3751465014      5.3184256935
 H      0.2239456277      0.4713974578      5.9169784634
 H     -0.6816950488     -0.7113273726      4.9462161198
 H     -1.4372323172     -0.1819118749      6.4870658145
 H     -4.3180031167      2.2681485517      4.9455049374
 H     -4.6932697589      1.7089736552      3.3507160861
 H     -3.3883852986      2.9470289193      3.5511760915
 H     -3.8608802248     -0.1752326350      5.7727364470
 H     -2.8603444374     -1.1782134613      4.6343155497
 H     -4.4811287762     -0.4845216712      4.1720712368
 H     -1.9780490733      0.2775483151      0.2516372686
 H      0.0711422465      1.9236495902     -2.9235214545
 H      1.3450506185      3.6520476595     -1.7645402057
60
# ORCA AIMD Position Step 6, t=3.00 fs, E_Pot=-1207.37951505 Hartree, Unit is Angstrom
 C      0.5874256362     -1.6529141130     -5.9198651962
 C      0.8293321225     -2.0328234089     -4.4427810952
 O      0.4062496139     -1.0202836275     -3.6034924669
 C      0.0388196941     -3.3520259702     -4.1291122267
 C      2.3507741142     -2.2016609983     -4.1236938885
 C      2.8684307955     -3.6367091852     -4.0663159999
 C      3.2974785055     -1.3717550327     -4.9974289522
 O      2.4419644518     -1.6952089397     -2.7687541346
 B      1.2562394030     -0.9331717610     -2.5542730563
 C      1.0255338211     -0.1505409048     -1.2846334864
 C      2.0740658115      0.1348391253     -0.4179321192
 C      2.1227537269      1.0876234857      0.6641079016
 H      3.1251368920      1.1245967098      1.2050004528
 C      0.9270150192      1.8356923089      1.2618382103
 H      1.2196387008      2.2139565712      2.2909165380
 C     -0.3970304243      1.2129506930      1.2836078454
 B     -1.1629740973      1.1831490918      2.6426844795
 O     -0.6723770129      1.7753001373      3.7650372916
 C     -1.5313819785      1.4028519205      4.9210442078
 C     -1.6702958297      2.5501351160      5.8288002346
 C     -0.8541692406      0.1856317377      5.6084835479
 C     -2.8782674893      0.9171591898      4.1544093376
 C     -3.8693967547      2.0751253362      3.9963243439
 C     -3.5269226739     -0.2983978375      4.7600610320
 O     -2.3893269661      0.5720751876      2.8140451618
 C     -0.9645404998      0.7209211131      0.1913422634
 C     -0.3439480090      0.5798298430     -1.1813239582
 H     -1.0437249988      0.0872067169     -1.8301672333
 C      0.1574997343      1.8674762805     -1.8093487353
 C      0.9479127941      2.8382039825     -1.1575148887
 C      1.4017215142      2.7503757004      0.1821546732
 H      2.0544623490      3.6218136529      0.4404318821
 H     -0.4507564351     -1.5174854901     -6.2101988296
 H      0.9770890006     -2.2943941481     -6.6005628009
 H      1.0580147501     -0.6989353810     -6.0709398570
 H     -1.0793847184     -3.1210949429     -4.1750871760
 H      0.1294358791     -3.6880112176     -3.1754045671
 H      0.1950755750     -4.1985557830     -4.8338931717
 H      2.8991359778     -4.1781434871     -5.0267923229
 H      2.4050918387     -4.2335464208     -3.2700582341
 H      3.8582656007     -3.6675634671     -3.7010492413
 H      3.3376426159     -1.7959789566     -6.0033738079
 H      4.2423058330     -1.3704163407     -4.5307103990
 H      2.8218734063     -0.3001438298     -5.0194542508
 H      3.0384820717     -0.3114441608     -0.6172161957
 H     -0.7604076050      2.8156561753      6.3014556884
 H     -2.3542078140      2.2923790349      6.6194727581
 H     -2.0461697395      3.3683098201      5.3185508201
 H      0.2225665546      0.4569251307      5.9098567179
 H     -0.6808566898     -0.7122044557      4.9480942323
 H     -1.4414278918     -0.1917559879      6.4774928255
 H     -4.3154650751      2.2595833616      4.9432332542
 H     -4.6915203338      1.7073072371      3.3589993042
 H     -3.3854275005      2.9426411283      3.5489922088
 H     -3.8640101244     -0.1814839375      5.7703657092
 H     -2.8604579161     -1.1700003112      4.6223162488
 H     -4.4793445891     -0.4707866047      4.1779553885
 H     -1.9749514889      0.2910765070      0.2436854289
 H      0.0734830090      1.9253882183     -2.9201915922
 H      1.3437846237      3.6561187454     -1.7568978219
60
# ORCA AIMD Position Step 7, t=3.50 fs, E_Pot=-1207.37557048 Hartree, Unit is Angstrom
 C      0.5906983366     -1.6504132665     -5.9157120210
 C      0.8287487703     -2.0254657897     -4.4353305782
 O      0.4102700708     -1.0195427117     -3.6029300943
 C      0.0429491430     -3.3552953606     -4.1282192628
 C      2.3476735266     -2.1980156561     -4.1252940456
 C      2.8644393561     -3.6331362031     -4.0679260189
 C      3.2973891354     -1.3722513679     -4.9991986049
 O      2.4444376037     -1.6963162864     -2.7694526736
 B      1.2535689697     -0.9318317443     -2.5541919156
 C      1.0274253352     -0.1564652619     -1.2850998804
 C      2.0760486753      0.1345534382     -0.4215540162
 C      2.1249376478      1.0855214421      0.6653120115
 H      3.1226030211      1.1211736253      1.1970647032
 C      0.9241208403      1.8362400558      1.2610099221
 H      1.2153219006      2.2065574045      2.2855675521
 C     -0.3947747054      1.2110651216      1.2831987310
 B     -1.1619719549      1.1823667540      2.6432384694
 O     -0.6734035907      1.7783750558      3.7607602219
 C     -1.5316561422      1.4089962842      4.9244823008
 C     -1.6680520049      2.5490092240      5.8281762061
 C     -0.8575361927      0.1823348352      5.6067499836
 C     -2.8803067307      0.9177930115      4.1546905118
 C     -3.8678390044      2.0777956744      3.9947425858
 C     -3.5248203873     -0.2957724733      4.7619507526
 O     -2.3882404951      0.5708423549      2.8134282461
 C     -0.9635382326      0.7288276515      0.1926545689
 C     -0.3439863139      0.5794538609     -1.1812894404
 H     -1.0447678576      0.0864307454     -1.8238237302
 C      0.1545923010      1.8707317256     -1.8091198078
 C      0.9490967443      2.8426546466     -1.1558063423
 C      1.3994710105      2.7522248081      0.1833266677
 H      2.0495278627      3.6189905448      0.4322235497
 H     -0.4384691991     -1.5074719396     -6.2247155283
 H      0.9883503659     -2.2923827611     -6.6044010302
 H      1.0665611368     -0.7008152365     -6.0576713549
 H     -1.0701312423     -3.1270208763     -4.1618032746
 H      0.1283604001     -3.7028471764     -3.1675832854
 H      0.1868533054     -4.1950634696     -4.8346447768
 H      2.9148579282     -4.1784059298     -5.0211109262
 H      2.4121475282     -4.2286086389     -3.2699295664
 H      3.8507594269     -3.6661379267     -3.6878693818
 H      3.3346933436     -1.7999946211     -5.9985730797
 H      4.2388738880     -1.3714483793     -4.5254115111
 H      2.8123814696     -0.3118884567     -5.0175734455
 H      3.0413203950     -0.3037295925     -0.6153545043
 H     -0.7631090884      2.8203190760      6.3036996456
 H     -2.3477844092      2.2858701501      6.6161732169
 H     -2.0533789955      3.3657051575      5.3163742374
 H      0.2171269768      0.4419462349      5.9024759433
 H     -0.6812637306     -0.7105739190      4.9506067963
 H     -1.4444244079     -0.2005192346      6.4667648128
 H     -4.3135887713      2.2524951754      4.9431664196
 H     -4.6888623008      1.7063814332      3.3672706035
 H     -3.3829271614      2.9384107368      3.5470435822
 H     -3.8666735411     -0.1873891342      5.7698219625
 H     -2.8618406760     -1.1608661546      4.6108901594
 H     -4.4752124721     -0.4571642527      4.1849094826
 H     -1.9709328735      0.3052745909      0.2362237755
 H      0.0755794579      1.9274004192     -2.9144507247
 H      1.3424368550      3.6597644994     -1.7490414646
60
# ORCA AIMD Position Step 8, t=4.00 fs, E_Pot=-1207.37401876 Hartree, Unit is Angstrom
 C      0.5938376459     -1.6475134829     -5.9110660524
 C      0.8281461992     -2.0186032054     -4.4282522363
 O      0.4141624670     -1.0186547316     -3.6023030561
 C      0.0467160989     -3.3582857587     -4.1277965035
 C      2.3447046003     -2.1944575221     -4.1267855705
 C      2.8602781325     -3.6296169637     -4.0695386999
 C      3.2966870156     -1.3724409555     -5.0009761921
 O      2.4466963555     -1.6973041236     -2.7702013558
 B      1.2514415401     -0.9307745841     -2.5540799432
 C      1.0292432533     -0.1621568034     -1.2852973516
 C      2.0778914377      0.1344167082     -0.4250989476
 C      2.1271796993      1.0833885652      0.6664393419
 H      3.1166042617      1.1184855185      1.1875867737
 C      0.9216605676      1.8368335720      1.2603602009
 H      1.2100924691      2.1984843579      2.2772850964
 C     -0.3926247766      1.2092168862      1.2829155577
 B     -1.1610699117      1.1815204753      2.6437198747
 O     -0.6745068322      1.7814863217      3.7566297511
 C     -1.5318297208      1.4146684861      4.9274912969
 C     -1.6658462927      2.5477008717      5.8276886081
 C     -0.8606546209      0.1789624388      5.6049716679
 C     -2.8821262944      0.9186721617      4.1549548885
 C     -3.8662212229      2.0801811368      3.9929844287
 C     -3.5228672510     -0.2932090738      4.7634946129
 O     -2.3871260800      0.5696411396      2.8129591414
 C     -0.9626000967      0.7366216951      0.1937142070
 C     -0.3437167957      0.5792654676     -1.1811109994
 H     -1.0466919943      0.0852946141     -1.8184400138
 C      0.1518983801      1.8742442372     -1.8088315505
 C      0.9499425555      2.8467092863     -1.1542662157
 C      1.3973237038      2.7541779242      0.1845279843
 H      2.0436229285      3.6137901605      0.4248506684