
                                 *****************
                                 * O   R   C   A *
                                 *****************

                                            #,                                       
                                            ###                                      
                                            ####                                     
                                            #####                                    
                                            ######                                   
                                           ########,                                 
                                     ,,################,,,,,                         
                               ,,#################################,,                 
                          ,,##########################################,,             
                       ,#########################################, ''#####,          
                    ,#############################################,,   '####,        
                  ,##################################################,,,,####,       
                ,###########''''           ''''###############################       
              ,#####''   ,,,,##########,,,,          '''####'''          '####       
            ,##' ,,,,###########################,,,                        '##       
           ' ,,###''''                  '''############,,,                           
         ,,##''                                '''############,,,,        ,,,,,,###''
      ,#''                                            '''#######################'''  
     '                                                          ''''####''''         
             ,#######,   #######,   ,#######,      ##                                
            ,#'     '#,  ##    ##  ,#'     '#,    #''#        ######   ,####,        
            ##       ##  ##   ,#'  ##            #'  '#       #        #'  '#        
            ##       ##  #######   ##           ,######,      #####,   #    #        
            '#,     ,#'  ##    ##  '#,     ,#' ,#      #,         ##   #,  ,#        
             '#######'   ##     ##  '#######'  #'      '#     #####' # '####'        



                  #######################################################
                  #                        -***-                        #
                  #          Department of theory and spectroscopy      #
                  #    Directorship and core code : Frank Neese         #
                  #        Max Planck Institute fuer Kohlenforschung    #
                  #                Kaiser Wilhelm Platz 1               #
                  #                 D-45470 Muelheim/Ruhr               #
                  #                      Germany                        #
                  #                                                     #
                  #                  All rights reserved                #
                  #                        -***-                        #
                  #######################################################


                         Program Version 5.0.1 -  RELEASE  -


 With contributions from (in alphabetic order):
   Daniel Aravena         : Magnetic Suceptibility
   Michael Atanasov       : Ab Initio Ligand Field Theory (pilot matlab implementation)
   Alexander A. Auer      : GIAO ZORA, VPT2 properties, NMR spectrum
   Ute Becker             : Parallelization
   Giovanni Bistoni       : ED, misc. LED, open-shell LED, HFLD
   Martin Brehm           : Molecular dynamics
   Dmytro Bykov           : SCF Hessian
   Vijay G. Chilkuri      : MRCI spin determinant printing, contributions to CSF-ICE
   Dipayan Datta          : RHF DLPNO-CCSD density
   Achintya Kumar Dutta   : EOM-CC, STEOM-CC
   Dmitry Ganyushin       : Spin-Orbit,Spin-Spin,Magnetic field MRCI
   Miquel Garcia          : C-PCM and meta-GGA Hessian, CC/C-PCM, Gaussian charge scheme
   Yang Guo               : DLPNO-NEVPT2, F12-NEVPT2, CIM, IAO-localization
   Andreas Hansen         : Spin unrestricted coupled pair/coupled cluster methods
   Benjamin Helmich-Paris : MC-RPA, TRAH-SCF, COSX integrals
   Lee Huntington         : MR-EOM, pCC
   Robert Izsak           : Overlap fitted RIJCOSX, COSX-SCS-MP3, EOM
   Marcus Kettner         : VPT2
   Christian Kollmar      : KDIIS, OOCD, Brueckner-CCSD(T), CCSD density, CASPT2, CASPT2-K
   Simone Kossmann        : Meta GGA functionals, TD-DFT gradient, OOMP2, MP2 Hessian
   Martin Krupicka        : Initial AUTO-CI
   Lucas Lang             : DCDCAS
   Marvin Lechner         : AUTO-CI (C++ implementation), FIC-MRCC
   Dagmar Lenk            : GEPOL surface, SMD
   Dimitrios Liakos       : Extrapolation schemes; Compound Job, initial MDCI parallelization
   Dimitrios Manganas     : Further ROCIS development; embedding schemes
   Dimitrios Pantazis     : SARC Basis sets
   Anastasios Papadopoulos: AUTO-CI, single reference methods and gradients
   Taras Petrenko         : DFT Hessian,TD-DFT gradient, ASA, ECA, R-Raman, ABS, FL, XAS/XES, NRVS
   Peter Pinski           : DLPNO-MP2, DLPNO-MP2 Gradient
   Christoph Reimann      : Effective Core Potentials
   Marius Retegan         : Local ZFS, SOC
   Christoph Riplinger    : Optimizer, TS searches, QM/MM, DLPNO-CCSD(T), (RO)-DLPNO pert. Triples
   Tobias Risthaus        : Range-separated hybrids, TD-DFT gradient, RPA, STAB
   Michael Roemelt        : Original ROCIS implementation
   Masaaki Saitow         : Open-shell DLPNO-CCSD energy and density
   Barbara Sandhoefer     : DKH picture change effects
   Avijit Sen             : IP-ROCIS
   Kantharuban Sivalingam : CASSCF convergence, NEVPT2, FIC-MRCI
   Bernardo de Souza      : ESD, SOC TD-DFT
   Georgi Stoychev        : AutoAux, RI-MP2 NMR, DLPNO-MP2 response
   Willem Van den Heuvel  : Paramagnetic NMR
   Boris Wezisla          : Elementary symmetry handling
   Frank Wennmohs         : Technical directorship


 We gratefully acknowledge several colleagues who have allowed us to
 interface, adapt or use parts of their codes:
   Stefan Grimme, W. Hujo, H. Kruse, P. Pracht,  : VdW corrections, initial TS optimization,
                  C. Bannwarth, S. Ehlert          DFT functionals, gCP, sTDA/sTD-DF
   Ed Valeev, F. Pavosevic, A. Kumar             : LibInt (2-el integral package), F12 methods
   Garnet Chan, S. Sharma, J. Yang, R. Olivares  : DMRG
   Ulf Ekstrom                                   : XCFun DFT Library
   Mihaly Kallay                                 : mrcc  (arbitrary order and MRCC methods)
   Jiri Pittner, Ondrej Demel                    : Mk-CCSD
   Frank Weinhold                                : gennbo (NPA and NBO analysis)
   Christopher J. Cramer and Donald G. Truhlar   : smd solvation model
   Lars Goerigk                                  : TD-DFT with DH, B97 family of functionals
   V. Asgeirsson, H. Jonsson                     : NEB implementation
   FAccTs GmbH                                   : IRC, NEB, NEB-TS, DLPNO-Multilevel, CI-OPT
                                                   MM, QMMM, 2- and 3-layer-ONIOM, Crystal-QMMM,
                                                   LR-CPCM, SF, NACMEs, symmetry and pop. for TD-DFT,
                                                   nearIR, NL-DFT gradient (VV10), updates on ESD,
                                                   ML-optimized integration grids
   S Lehtola, MJT Oliveira, MAL Marques          : LibXC Library
   Liviu Ungur et al                             : ANISO software


 Your calculation uses the libint2 library for the computation of 2-el integrals
 For citations please refer to: http://libint.valeyev.net

 Your ORCA version has been built with support for libXC version: 5.1.0
 For citations please refer to: https://tddft.org/programs/libxc/

 This ORCA versions uses:
   CBLAS   interface :  Fast vector & matrix operations
   LAPACKE interface :  Fast linear algebra routines
   SCALAPACK package :  Parallel linear algebra routines
   Shared memory     :  Shared parallel matrices
   BLAS/LAPACK       :  OpenBLAS 0.3.15  USE64BITINT DYNAMIC_ARCH NO_AFFINITY Zen SINGLE_THREADED
        Core in use  :  Zen
   Copyright (c) 2011-2014, The OpenBLAS Project




***************************************
The coordinates will be read from file: bvl_bpin2.xyz
***************************************


Your calculation utilizes the atom-pairwise dispersion correction
with the Becke-Johnson damping scheme (D3BJ)
Cite in your paper:
S.Grimme, S.Ehrlich, L.Goerigk, J Comput Chem, (2011), 32, 1456–1465 
S.Grimme, J.Antony, S.Ehrlich and H.Krieg, J.Chem.Phys., 132, (2010), 154104 
   

Your calculation utilizes a Nudged-Elastic-Band implementation
 by V.Asgeirsson, C. Riplinger & H. Jonsson
Please cite in your paper:
 V. Asgeirsson et al., in prep. (2019)
   

================================================================================

----- Orbital basis set information -----
Your calculation utilizes the basis: def2-SVP
   F. Weigend and R. Ahlrichs, Phys. Chem. Chem. Phys. 7, 3297 (2005).

----- AuxJ basis set information -----
Your calculation utilizes the auxiliary basis: def2/J
   F. Weigend, Phys. Chem. Chem. Phys. 8, 1057 (2006).

================================================================================
                                        WARNINGS
                       Please study these warnings very carefully!
================================================================================


WARNING: Geometry Optimization
  ===> : Switching off AutoStart
         For restart on a previous wavefunction, please use MOREAD

INFO   : the flag for use of the SHARK integral package has been found!

================================================================================
                                       INPUT FILE
================================================================================
NAME = get_bvl_bvl_rxn1_TS.inp
|  1> !PBE DEF2-SVP D3 NEB-TS FREQ
|  2> %PAL NPROCS 16 END
|  3> %NEB NEB_END_XYZFILE "bvl_bpin2_rxn1_prod.xyz" 
|  4>      NEB_TS_XYZFILE "bvl_bpin2_rxn1_TSguess.xyz"
|  5> END
|  6> * XYZfile 0 1 bvl_bpin2.xyz
|  7> 
|  8> 
|  9>                          ****END OF INPUT****
================================================================================


------------------------------------------------------------------------------- 
                         Nudged Elastic Band Calculation                       
------------------------------------------------------------------------------- 

Number of images (incl. end points)     ....  10
Number of intermediate images           ....  8
Number of optimized images              ....  8
Optimization of end points before NEB   ....  NO
Use existing gbw files for MO input     ....  NO
Number of atoms                         ....  60
Number of (active) degrees of freedom   ....  180
Constrained atoms                       ....  None

-----------------------------------------
  REACTANT (ANGSTROEM)
-----------------------------------------
C      3.120478   -38.283514    16.305340 
C      3.543862   -38.333894    17.770247 
O      3.201843   -37.070581    18.403010 
C      2.768006   -39.427790    18.514329 
C      5.106547   -38.415742    18.008551 
C      5.648095   -39.825763    18.224359 
C      5.914085   -37.693641    16.922547 
O      5.271702   -37.655206    19.235141 
B      4.191139   -36.795849    19.330716 
C      4.081097   -35.643432    20.361902 
C      5.129737   -35.405188    21.205103 
C      5.218676   -34.387527    22.258063 
H      6.170748   -34.386969    22.810340 
C      4.003757   -33.975166    23.114621 
H      4.268524   -33.754921    24.160108 
C      2.668237   -34.600992    22.963903 
B      1.849731   -34.862882    24.259344 
O      2.286301   -34.477917    25.514280 
C      1.393917   -35.089631    26.486406 
C      1.214475   -34.134146    27.662015 
C      2.067227   -36.387362    26.950122 
C      0.088451   -35.344626    25.628848 
C     -0.848582   -34.131250    25.593676 
C     -0.687111   -36.604771    26.000910 
O      0.625896   -35.504220    24.287856 
C      2.127050   -34.969506    21.766204 
C      2.799259   -34.811199    20.419039 
H      2.114399   -35.196270    19.641662 
C      3.083515   -33.349942    20.121796 
C      3.880013   -32.566113    20.885336 
C      4.589411   -32.982890    22.109184 
H      5.195857   -32.189607    22.572521 
H      2.016597   -38.222289    16.236295 
H      3.447975   -39.197463    15.770186 
H      3.542879   -37.401088    15.791002 
H      1.689694   -39.176428    18.494696 
H      3.084119   -39.490552    19.574043 
H      2.904120   -40.421858    18.045284 
H      5.452160   -40.462072    17.338011 
H      5.194600   -40.304024    19.111741 
H      6.743678   -39.785022    18.382697 
H      5.914691   -38.252856    15.966443 
H      6.961231   -37.589701    17.267518 
H      5.513929   -36.677492    16.737917 
H      6.018515   -36.049929    21.093699 
H      2.178008   -34.011430    28.194697 
H      0.472811   -34.532365    28.383404 
H      0.882008   -33.134006    27.328865 
H      3.076691   -36.147129    27.336828 
H      2.183802   -37.097791    26.108487 
H      1.493149   -36.885112    27.755979 
H     -1.369566   -33.983826    26.559942 
H     -1.611240   -34.291726    24.806926 
H     -0.294235   -33.204842    25.345849 
H     -1.038146   -36.556200    27.051357 
H     -0.070733   -37.513420    25.874344 
H     -1.575161   -36.702295    25.346143 
H      1.123688   -35.428664    21.781474 
H      2.612364   -32.912237    19.226447 
H      4.029771   -31.516635    20.582076 

-----------------------------------------
  PRODUCT (ANGSTROEM)
-----------------------------------------
C      3.665358   -37.693583    15.786780 
C      3.781866   -38.040944    17.267131 
O      3.407614   -36.874516    18.054305 
C      2.798950   -39.158983    17.634240 
C      5.255571   -38.324893    17.770726 
C      5.642011   -39.799323    17.827085 
C      6.314505   -37.522120    17.006209 
O      5.225770   -37.797389    19.128180 
B      4.202771   -36.875521    19.184561 
C      3.954765   -35.928468    20.396733 
C      4.935916   -35.994185    21.502812 
C      4.917687   -35.280185    22.652871 
H      5.725016   -35.446269    23.385373 
C      3.848467   -34.263849    23.008281 
H      4.091368   -33.834034    23.997176 
C      2.486168   -34.946599    23.121262 
B      1.751359   -34.951730    24.486991 
O      2.235500   -34.289400    25.600958 
C      1.416371   -34.690158    26.732904 
C      1.256806   -33.496827    27.670135 
C      2.161744   -35.828948    27.440264 
C      0.081690   -35.170087    26.029268 
C     -0.909633   -34.025672    25.782737 
C     -0.620329   -36.338462    26.715137 
O      0.557273   -35.607475    24.728339 
C      1.907123   -35.573112    22.054374 
C      2.429566   -35.688559    20.688590 
H      1.776380   -36.234614    19.991074 
C      3.249157   -34.594454    20.016843 
C      3.566263   -33.314604    20.676009 
C      3.824426   -33.137190    21.992750 
H      4.041723   -32.118452    22.354239 
H      2.604574   -37.505396    15.529355 
H      4.027735   -38.530910    15.157317 
H      4.242457   -36.785182    15.534732 
H      1.766360   -38.800162    17.457020 
H      2.886796   -39.433895    18.703687 
H      2.962439   -40.067223    17.022024 
H      5.594291   -40.258311    16.819056 
H      4.981051   -40.367284    18.506790 
H      6.680176   -39.899249    18.200040 
H      6.465025   -37.911892    15.980556 
H      7.276383   -37.590652    17.550483 
H      6.035716   -36.452163    16.940383 
H      5.756648   -36.713137    21.345323 
H      2.240811   -33.228205    28.102260 
H      0.569828   -33.738644    28.506000 
H      0.867576   -32.610365    27.136851 
H      3.177829   -35.478970    27.707572 
H      2.267570   -36.709013    26.776165 
H      1.645048   -36.144746    28.367556 
H     -1.388332   -33.684955    26.721691 
H     -1.701702   -34.383538    25.096528 
H     -0.411914   -33.158933    25.305137 
H     -0.926746   -36.064883    27.744841 
H      0.028518   -37.231918    26.763017 
H     -1.531558   -36.610476    26.146993 
H      0.930176   -36.057414    22.224731 
H      3.050274   -34.514328    18.937151 
H      3.587457   -32.434501    20.012215 



----------------------
NEB settings
----------------------
Method type                             ....  climbing image
Threshold for climbing image            ....  2.00e-02 Eh/Bohr 
Free endpoints                          ....  off 
Tangent type                            ....  improved 
Number of intermediate images           ....  8 
Number of images free to move           ....  8 
Spring type for image distribution      ....  distance between adjacent images 
Spring constant                         ....  energy weighted (0.0100 -to- 0.1000) Eh/Bohr^2 
Spring force perp. to the path          ....  none 
Generation of initial path              ....  image dependent pair potential 
Initial path via TS guess (as image #)  ....  bvl_bpin2_rxn1_TSguess.xyz (determined on-the-fly)
Minimization of RMSD: Rotation          ....  always 
Minimization of RMSD: Translation type  ....  centroid 
Center fixed to origin                  ....  true 
Remove external force                   ....  true 

Reparametrization of the path           ....  off 
Convergence thresholds:
Convergence monitored for               ....  all images
Scaling factor                          ....  10.00

Convergence parameters for regular images:
               Max(|Fp|)                ....  2.00e-02 Eh/Bohr
               RMS(Fp)                  ....  1.00e-02 Eh/Bohr

Convergence parameters for climbing image:
               Max(|F|)                 ....  2.00e-03 Eh/Bohr
               RMS(F)                   ....  1.00e-03 Eh/Bohr
Optimization method:
Method                                  ....  L-BFGS
Max. iterations                         ....  500 
Step size                               ....  1.00 
Maximum allowed step size               ....  0.10 Bohr

LBFGS parameters: 
               Memory                   ....  20 
               Initial step size        ....  0.0010 
               Estimate curvature       ....  YES 
               Reset on maxmove         ....  YES 
               Reparam. on reset        ....  NO 
Generation of  the initial path:
Minimize RMSD between reactant and TS configurations          .... done
       RMSD (R-TS) before minimization  ....  0.7101 Bohr
       RMSD (R-TS) after minimization   ....  0.7100 Bohr
Minimize RMSD between TS and product configurations           .... done
       RMSD (TS-P) before minimization  ....  46.1344 Bohr
       RMSD (TS-P) after minimization   ....  0.3117 Bohr
Optimal image number for TS guess       ....  6
Performing linear interpolation         ....  done
Interpolation using                     ....  IDPP (Image Dependent Pair Potential)
IDPP-Settings:
       Remove global transl. and rot.   ...   true
       Convergence tolerance            ....  0.0100 1/Ang.^3
       Max. numer of iterations         ....    7000
       Spring constant                  ....  1.0000 1/Ang.^4
       Time step                        ....  0.0100 fs
       Max. movement per iteration      ....  0.0500 Ang.
       Full print                       ....  false 
Running IDPP from reactant to TS guess structure:
idpp initial path generation successfully converged in 107 iterations
Running IDPP from TS guess structure to product:
idpp initial path generation successfully converged in 90 iterations
Displacement along initial path:             13.7126 Bohr
Writing initial trajectory to file      ....  get_bvl_bvl_rxn1_TS_initial_path_trj.xyz



----------------------
NEB OPTIMIZATION      
----------------------

Following output files will be written:
Energy profile during opt. written to    ....  get_bvl_bvl_rxn1_TS.interp
Optimization log-file                    ....  get_bvl_bvl_rxn1_TS.NEB.log
Current trajectory will be written to    ....  get_bvl_bvl_rxn1_TS_MEP_trj.xyz
       and to allxyz file                ....  get_bvl_bvl_rxn1_TS_MEP.allxyz
       and individual images to xyz file ....  get_bvl_bvl_rxn1_TS_im{NIm}.xyz
Trajectory history will be written to    ....  get_bvl_bvl_rxn1_TS_MEP_ALL_trj.xyz
Converged CI will be written to          ....  get_bvl_bvl_rxn1_TS_NEB-CI_converged.xyz
Converged TS will be written to          ....  get_bvl_bvl_rxn1_TS_NEB-TS_converged.xyz

Single point energy and gradient calculation of reactant and
product configurations (have to be performed only once)
Properties of fixed NEB end points:
               Reactant:
                         E               ....  -1206.035608 Eh
                         RMS(F)          ....      0.000031 Eh/Bohr
                         MAX(|F|)        ....      0.000178 Eh/Bohr
               Product:
                         E               ....  -1206.034020 Eh
                         RMS(F)          ....      0.000044 Eh/Bohr
                         MAX(|F|)        ....      0.000166 Eh/Bohr



Starting iterations:

Optim.  Iteration  HEI  E(HEI)-E(0)  max(|Fp|)   RMS(Fp)    dS
Switch-on CI threshold               0.020000 
   LBFGS     0      6    0.040053    0.029857   0.005180  13.7126       
   LBFGS     1      6    0.031249    0.033570   0.004074  13.7025       
   LBFGS     2      6    0.027263    0.014203   0.002935  13.7038       

Image  6 will be converted to a climbing image in the next iteration (max(|Fp|) < 0.0200) 

Optim.  Iteration  CI   E(CI)-E(0)   max(|Fp|)   RMS(Fp)    dS     max(|FCI|)   RMS(FCI)
Convergence thresholds               0.020000   0.010000            0.002000    0.001000 
   LBFGS     3      6    0.025863    0.012614   0.002161  13.7019    0.010408    0.003533       
   LBFGS     4      6    0.024271    0.011151   0.002357  13.7460    0.011849    0.004201       
   LBFGS     5      6    0.023110    0.010047   0.002371  13.7825    0.012801    0.004526       
   LBFGS     6      6    0.022726    0.037125   0.003123  13.8489    0.040350    0.006378       
   LBFGS     7      6    0.019522    0.013080   0.001138  13.8496    0.013412    0.002321       
   LBFGS     8      6    0.019060    0.007023   0.000764  13.8536    0.007458    0.001238       
   LBFGS     9      6    0.019240    0.005915   0.001255  13.8774    0.007157    0.002241       
   LBFGS    10      6    0.020155    0.013706   0.002085  13.9566    0.015631    0.004110       
   LBFGS    11      6    0.020268    0.018555   0.002665  14.1892    0.014119    0.004244       
   LBFGS    12      6    0.017923    0.013196   0.001313  14.1793    0.005576    0.001149       
   LBFGS    13      6    0.017787    0.004031   0.000665  14.1764    0.002855    0.000896       
   LBFGS    14      6    0.017714    0.005369   0.000768  14.1760    0.003197    0.001063       
   LBFGS    15      6    0.017588    0.008988   0.000979  14.1970    0.005153    0.001125       
   LBFGS    16      6    0.017961    0.016860   0.001973  14.3146    0.006801    0.001948       
   LBFGS    17      6    0.018588    0.011674   0.001796  14.5412    0.008888    0.001921       
   LBFGS    18      6    0.017894    0.014884   0.001808  14.5397    0.007030    0.001643       
   LBFGS    19      6    0.017503    0.006048   0.000970  14.5371    0.006336    0.001286       
   LBFGS    20      6    0.017122    0.002819   0.000455  14.5279    0.003261    0.000600       
   LBFGS    21      6    0.017060    0.004521   0.000576  14.5170    0.002000    0.000479       
   LBFGS    22      6    0.017058    0.004127   0.000632  14.5088    0.002017    0.000630       
   LBFGS    23      6    0.017372    0.021132   0.001413  14.5676    0.007438    0.001441       
   LBFGS    24      6    0.017386    0.005192   0.000801  14.6451    0.004554    0.000975       
   LBFGS    25      6    0.017443    0.012379   0.000991  14.7653    0.003674    0.001008       
   LBFGS    26      6    0.017630    0.008808   0.001002  15.1985    0.007011    0.001308       
   LBFGS    27      6    0.017915    0.023762   0.001591  15.8190    0.009571    0.001859       
   LBFGS    28      6    0.017601    0.010563   0.000753  15.7992    0.004406    0.001002       
   LBFGS    29      6    0.017477    0.007159   0.000604  15.7784    0.004302    0.000907       
   LBFGS    30      6    0.016901    0.005275   0.000535  15.6308    0.006836    0.001057       
   LBFGS    31      6    0.016992    0.012838   0.001186  15.5629    0.014859    0.002105       
   LBFGS    32      6    0.016696    0.005126   0.000466  15.5625    0.004851    0.000772       
   LBFGS    33      6    0.016620    0.001803   0.000274  15.5316    0.001548    0.000287       

                                .--------------------.
          ----------------------| CI-NEB convergence |-------------------------
          Item                value                   Tolerance       Converged
          ---------------------------------------------------------------------
          RMS(Fp)             0.0002735027            0.0100000000      YES
          MAX(|Fp|)           0.0018027489            0.0200000000      YES
          RMS(FCI)            0.0002866882            0.0010000000      YES
          MAX(|FCI|)          0.0015480625            0.0020000000      YES
          ---------------------------------------------------------------------

The elastic band and climbing image have converged successfully to a MEP in 33 iterations!


                    *********************H U R R A Y*********************
                    ***        THE NEB OPTIMIZATION HAS CONVERGED     ***
                    *****************************************************



---------------------------------------------------------------
                         PATH SUMMARY              
---------------------------------------------------------------
All forces in Eh/Bohr.

Image Dist.(Ang.)    E(Eh)   dE(kcal/mol)  max(|Fp|)  RMS(Fp)
  0     0.000   -1206.03561      0.00       0.00018   0.00003
  1     2.261   -1206.03447      0.71       0.00061   0.00015
  2     3.643   -1206.03265      1.86       0.00111   0.00025
  3     4.590   -1206.03058      3.15       0.00125   0.00032
  4     5.118   -1206.02715      5.31       0.00178   0.00040
  5     5.460   -1206.02055      9.45       0.00180   0.00038
  6     5.802   -1206.01899     10.43       0.00154   0.00028 <= CI
  7     6.178   -1206.02449      6.97       0.00105   0.00027
  8     6.738   -1206.03135      2.67       0.00166   0.00033
  9     8.219   -1206.03402      1.00       0.00017   0.00004

Straight line distance between images along the path:
        D( 0- 1) =   2.2614 Ang.
        D( 1- 2) =   1.3814 Ang.
        D( 2- 3) =   0.9469 Ang.
        D( 3- 4) =   0.5282 Ang.
        D( 4- 5) =   0.3425 Ang.
        D( 5- 6) =   0.3418 Ang.
        D( 6- 7) =   0.3757 Ang.
        D( 7- 8) =   0.5600 Ang.
        D( 8- 9) =   1.4812 Ang.

---------------------------------------------------------------
               INFORMATION ABOUT SADDLE POINT     
---------------------------------------------------------------

Climbing image                            ....  6 
Energy                                    ....  -1206.01898838 Eh
Max. abs. force                           ....  1.5481e-03 Eh/Bohr

-----------------------------------------
  SADDLE POINT (ANGSTROEM)
-----------------------------------------
C      0.561708    -1.664797    -5.936736 
C      0.828062    -2.081371    -4.491156 
O      0.373886    -1.012764    -3.617219 
C      0.004573    -3.325630    -4.138846 
C      2.366197    -2.218949    -4.108892 
C      2.885868    -3.654219    -4.047770 
C      3.284790    -1.362507    -4.988755 
O      2.415687    -1.666049    -2.766727 
B      1.280565    -0.901893    -2.578255 
C      1.023107    -0.039354    -1.316386 
C      2.075209     0.130173    -0.378035 
C      2.114659     0.955138     0.736812 
H      3.079077     1.058946     1.260966 
C      0.990048     1.838320     1.226109 
H      1.245074     2.241584     2.220931 
C     -0.395436     1.231868     1.282695 
B     -1.157243     1.193525     2.638489 
O     -0.661391     1.759420     3.796588 
C     -1.526480     1.358641     4.894407 
C     -1.684508     2.548812     5.837779 
C     -0.829430     0.200105     5.617475 
C     -2.859018     0.916499     4.148174 
C     -3.876008     2.054684     3.999975 
C     -3.540474    -0.317757     4.736905 
O     -2.384845     0.585203     2.816248 
C     -0.974361     0.672689     0.191195 
C     -0.363263     0.579031    -1.169723 
H     -1.055046     0.088437    -1.874965 
C      0.235028     1.795441    -1.813569 
C      0.936406     2.827152    -1.167886 
C      1.307234     2.869880     0.174398 
H      1.990430     3.677082     0.481725 
H     -0.530290    -1.586871    -6.107374 
H      0.967996    -2.409279    -6.650235 
H      1.009955    -0.679847    -6.161927 
H     -1.071302    -3.090081    -4.256070 
H      0.170494    -3.635502    -3.088875 
H      0.247692    -4.179816    -4.800530 
H      2.789353    -4.159037    -5.029717 
H      2.343418    -4.246830    -3.288531 
H      3.957620    -3.648437    -3.767021 
H      3.354112    -1.763362    -6.019114 
H      4.301859    -1.356202    -4.550406 
H      2.931462    -0.314648    -5.043360 
H      3.017664    -0.377090    -0.644268 
H     -0.707289     2.788769     6.301572 
H     -2.404379     2.322597     6.649707 
H     -2.032002     3.448862     5.298380 
H      0.175674     0.529980     5.945375 
H     -0.699037    -0.673054     4.949397 
H     -1.399540    -0.122461     6.510480 
H     -4.334039     2.322307     4.972491 
H     -4.682635     1.729306     3.314363 
H     -3.410265     2.961952     3.568988 
H     -3.838432    -0.144139     5.790402 
H     -2.879948    -1.202952     4.696093 
H     -4.454581    -0.552486     4.156324 
H     -1.976510     0.226514     0.310640 
H      0.116818     1.856594    -2.905603 
H      1.346023     3.617871    -1.817138 

-----------------------------------------
  FORCES (Eh/Bohr)
-----------------------------------------
C      0.000062     0.000006    -0.000093 
C     -0.000434     0.000120    -0.000047 
O      0.000024     0.000000    -0.000367 
C     -0.000120    -0.000092     0.000111 
C      0.000274     0.000046     0.000169 
C     -0.000060    -0.000098    -0.000061 
C      0.000045     0.000209     0.000065 
O     -0.000205     0.000090    -0.000280 
B     -0.000111     0.000312    -0.000127 
C      0.000434     0.000180     0.000109 
C     -0.000304    -0.000354    -0.000940 
C      0.000265     0.000479     0.000755 
H     -0.000519    -0.000144     0.000198 
C      0.000125     0.000020     0.000268 
H      0.000218     0.000149     0.000766 
C     -0.000312    -0.000195    -0.000245 
B      0.000022     0.000022    -0.000181 
O     -0.000106    -0.000027     0.000115 
C      0.000398     0.000146     0.000064 
C     -0.000079     0.000124     0.000025 
C      0.000179    -0.000117    -0.000068 
C     -0.000223    -0.000091    -0.000262 
C      0.000001     0.000169    -0.000221 
C      0.000053    -0.000071     0.000068 
O      0.000113     0.000066     0.000160 
C      0.000187    -0.000007     0.000394 
C     -0.000054    -0.000048     0.000057 
H     -0.000374    -0.000176    -0.000080 
C      0.000011    -0.000671    -0.000615 
C      0.000819    -0.000100     0.001548 
C     -0.000647    -0.000228    -0.001444 
H     -0.000201     0.000514     0.000755 
H      0.000172    -0.000064     0.000180 
H     -0.000032    -0.000258     0.000200 
H      0.000039    -0.000119     0.000026 
H      0.000102     0.000172     0.000018 
H      0.000265     0.000068     0.000096 
H     -0.000132    -0.000068    -0.000013 
H      0.000035     0.000185    -0.000164 
H     -0.000049    -0.000092    -0.000251 
H     -0.000157     0.000097    -0.000194 
H     -0.000002     0.000044     0.000139 
H     -0.000201     0.000010     0.000277 
H     -0.000094     0.000162     0.000260 
H     -0.000068    -0.000163     0.000005 
H     -0.000158    -0.000167    -0.000044 
H      0.000120    -0.000126     0.000094 
H     -0.000112    -0.000036     0.000088 
H     -0.000074     0.000181    -0.000127 
H     -0.000069    -0.000004    -0.000259 
H      0.000186    -0.000022     0.000016 
H      0.000001     0.000052    -0.000169 
H      0.000258    -0.000131    -0.000122 
H      0.000311     0.000052    -0.000089 
H     -0.000061     0.000165    -0.000078 
H      0.000022     0.000105     0.000174 
H      0.000166     0.000211     0.000036 
H     -0.000089    -0.000071     0.000012 
H      0.000226    -0.000582    -0.000502 
H     -0.000089     0.000166    -0.000206 

-----------------------------------------
  UNIT TANGENT
-----------------------------------------
C     -0.008222    -0.013926    -0.003789 
C     -0.013472     0.005367     0.001974 
O     -0.024853     0.033513    -0.035387 
C     -0.006450     0.005797     0.017688 
C     -0.015165     0.019837     0.012863 
C     -0.007217     0.020296     0.029518 
C     -0.011688     0.003243    -0.001710 
O     -0.028769     0.072148    -0.001496 
B     -0.002145     0.140150    -0.074699 
C      0.030931     0.277362    -0.148730 
C      0.040056    -0.005557     0.041207 
C      0.006102    -0.377896     0.204733 
H      0.030562    -0.293816     0.148248 
C      0.110076     0.012710    -0.116323 
H      0.058940     0.008758    -0.092081 
C      0.050530     0.021774    -0.009673 
B      0.039627     0.020076    -0.001680 
O      0.019471     0.007911     0.011357 
C      0.006281    -0.001673    -0.000969 
C     -0.001190    -0.008308     0.006088 
C     -0.000925    -0.006934    -0.002469 
C      0.012239     0.001141    -0.013038 
C      0.005880    -0.001391    -0.005573 
C      0.006246    -0.003051    -0.018957 
O      0.029948     0.016549    -0.012413 
C     -0.007940     0.000360     0.030037 
C     -0.090306    -0.028280     0.031968 
H     -0.052236    -0.022649     0.000785 
C      0.225650    -0.230704    -0.004380 
C      0.014993     0.037034     0.015265 
C     -0.285468     0.329118    -0.006929 
H     -0.203335     0.271713    -0.026472 
H     -0.008146    -0.017780    -0.004952 
H     -0.005713    -0.019958     0.005741 
H     -0.010903    -0.014325    -0.013110 
H     -0.007555    -0.000631     0.015006 
H     -0.000972     0.013125     0.019204 
H     -0.001023     0.003303     0.021266 
H     -0.008405     0.014744     0.030659 
H     -0.002612     0.016961     0.029865 
H     -0.003920     0.020006     0.018583 
H     -0.014956    -0.010383     0.004144 
H     -0.008323     0.006010    -0.009017 
H     -0.006107     0.004234    -0.019913 
H     -0.006656    -0.057253    -0.024456 
H     -0.002248    -0.010869     0.009376 
H     -0.004334    -0.013529     0.002482 
H      0.001202    -0.005293     0.009427 
H     -0.001865    -0.010155     0.002985 
H      0.001213    -0.005002    -0.004581 
H     -0.006592    -0.009099    -0.006580 
H      0.003981    -0.006916    -0.004116 
H      0.004030     0.003274    -0.006228 
H      0.003451     0.002517     0.001120 
H      0.003605    -0.007434    -0.018116 
H      0.000884    -0.007106    -0.015600 
H      0.002734    -0.002631    -0.014764 
H     -0.012318     0.016171     0.055823 
H      0.179777    -0.201401     0.003981 
H     -0.016381    -0.011251    -0.063192 
 => Unit tangent is an approximation to the TS mode at the saddle point

Next a TS optimization is performed on the CI from the NEB run.

         *************************************************************
         *                       TS OPTIMIZATION                     *
         *************************************************************


Following output files will be written:
Converged TS will be written to          ....  get_bvl_bvl_rxn1_TS_NEB-TS_converged.xyz
                                         ....  get_bvl_bvl_rxn1_TS.xyz
Current trajectory will be written to    ....  get_bvl_bvl_rxn1_TS_trj.xyz
Initial Hessian will be stored in        ....  get_bvl_bvl_rxn1_TS.appr.hess
Geometry optimization settings:
Update method            Update   .... Bofill
Choice of coordinates    CoordSys .... Z-matrix Internals
Initial Hessian          InHess   .... Read

Convergence Tolerances:
Energy Change            TolE     ....  5.0000e-06 Eh
Max. Gradient            TolMAXG  ....  3.0000e-04 Eh/bohr
RMS Gradient             TolRMSG  ....  1.0000e-04 Eh/bohr
Max. Displacement        TolMAXD  ....  4.0000e-03 bohr
RMS Displacement         TolRMSD  ....  2.0000e-03 bohr
Strict Convergence                ....  False
------------------------------------------------------------------------------
                        ORCA OPTIMIZATION COORDINATE SETUP
------------------------------------------------------------------------------

The optimization will be done in new redundant internal coordinates
Making redundant internal coordinates   ...  (new redundants) done
Following TS mode number                ...     0
TS-active-atoms for coordinate setup... 9 11 12 28 30 31 
Evaluating the initial hessian          ... (Reading Exact Hessian)...  
InHessName: get_bvl_bvl_rxn1_TS.appr.hess	The file <get_bvl_bvl_rxn1_TS.appr.hess> is opened as a .hess file
done
done
Diagonalizing the Hessian               .... done
Dimension of the hessian                .... 371
Lowest eigenvalues of the non projected Hessian:
 -0.004953891 -0.000000000 -0.000000000 -0.000000000 -0.000000000
done
Evaluating the coordinates              ...  done
Calculating the B-matrix                .... done
Calculating the G-matrix                .... done
Diagonalizing the G-matrix              .... done
Small eigenvalue found = 2.314e-03
Small eigenvalue found = 5.007e-03
Small eigenvalue found = 7.784e-03
Small eigenvalue found = 1.417e-02
Small eigenvalue found = 2.153e-02
Small eigenvalue found = 2.446e-02
Small eigenvalue found = 2.724e-02
The first mode is                       ....  197
The number of degrees of freedom        ....  174

    -----------------------------------------------------------------
                    Redundant Internal Coordinates


    -----------------------------------------------------------------
         Definition                    Initial Value    d2E/dq (diagonal element)
    -----------------------------------------------------------------
      1. B(C   1,C   0)                  1.5278         0.376606   
      2. B(O   2,C   1)                  1.4533         0.400574   
      3. B(C   3,C   1)                  1.5331         0.369339   
      4. B(C   4,C   1)                  1.5909         0.262647   
      5. B(C   5,C   4)                  1.5277         0.377631   
      6. B(C   6,C   4)                  1.5334         0.368886   
      7. B(O   7,C   4)                  1.4524         0.404417   
      8. B(B   8,O   2)                  1.3834         0.362681   
      9. B(B   8,O   7)                  1.3813         0.365505   
     10. B(C   9,B   8)                  1.5500         0.173494   
     11. B(C   9,O   7)                  2.5863         0.098712   
     12. B(C   9,O   2)                  2.5812         0.096215   
     13. B(C  10,C   9)                  1.4199         0.248805   
     14. B(C  11,C  10)                  1.3874         0.202380   
     15. B(C  11,C   9)                  2.5291         0.105931   
     16. B(H  12,C  11)                  1.1025         0.344428   
     17. B(C  13,C  11)                  1.5113         0.157357   
     18. B(H  14,C  13)                  1.1033         0.343892   
     19. B(C  15,C  11)                  2.5836         0.076080   
     20. B(C  15,C  13)                  1.5135         0.177898   
     21. B(B  16,C  15)                  1.5556         0.397475   
     22. B(O  17,B  16)                  1.3811         0.555061   
     23. B(C  18,O  17)                  1.4540         0.401495   
     24. B(C  19,C  18)                  1.5269         0.377869   
     25. B(C  20,C  18)                  1.5333         0.369146   
     26. B(C  21,C  18)                  1.5900         0.263583   
     27. B(C  22,C  21)                  1.5335         0.368804   
     28. B(C  23,C  21)                  1.5279         0.376593   
     29. B(O  24,C  21)                  1.4521         0.406790   
     30. B(O  24,B  16)                  1.3815         0.556942   
     31. B(C  25,C  15)                  1.3562         0.580273   
     32. B(C  25,C   9)                  2.6019         0.075923   
     33. B(C  26,C  25)                  1.4948         0.191018   
     34. B(C  26,C   9)                  1.5251         0.153115   
     35. B(H  27,C  26)                  1.1030         0.343740   
     36. B(C  28,C  26)                  1.5007         0.167600   
     37. B(C  28,C  25)                  2.5966         0.078692   
     38. B(C  28,C  10)                  2.8671         0.068654   
     39. B(C  28,C   9)                  2.0578         0.042061   
     40. B(C  28,B   8)                  2.9922         0.058415   
     41. B(C  29,C  11)                  2.9190         0.072269   
     42. B(C  29,C   9)                  2.8717         0.072383   
     43. B(C  29,C  28)                  1.4047         0.265921   
     44. B(C  30,C  28)                  2.5012         0.109849   
     45. B(C  30,C  15)                  2.6097         0.077348   
     46. B(C  30,C  11)                  2.1528         0.041493   
     47. B(C  30,C  10)                  2.8984         0.060651   
     48. B(C  30,C  29)                  1.3932         0.285466   
     49. B(C  30,C  13)                  1.5069         0.163109   
     50. B(H  31,C  30)                  1.1013         0.345945   
     51. B(H  32,C   0)                  1.1080         0.337075   
     52. B(H  33,C   0)                  1.1083         0.336659   
     53. B(H  34,C   0)                  1.1053         0.340409   
     54. B(H  35,C   3)                  1.1076         0.337584   
     55. B(H  36,C   3)                  1.1072         0.338022   
     56. B(H  37,C   3)                  1.1075         0.337716   
     57. B(H  38,C   5)                  1.1083         0.336850   
     58. B(H  39,C   5)                  1.1054         0.340332   
     59. B(H  40,C   5)                  1.1079         0.337146   
     60. B(H  41,C   6)                  1.1078         0.337357   
     61. B(H  42,C   6)                  1.1075         0.337663   
     62. B(H  43,C   6)                  1.1072         0.338091   
     63. B(H  44,C  10)                  1.1029         0.251188   
     64. B(H  44,C  11)                  2.1208         0.082532   
     65. B(H  45,C  19)                  1.1080         0.337072   
     66. B(H  46,C  19)                  1.1084         0.336533   
     67. B(H  47,C  19)                  1.1053         0.340371   
     68. B(H  48,C  20)                  1.1075         0.337672   
     69. B(H  49,C  20)                  1.1071         0.338144   
     70. B(H  50,C  20)                  1.1075         0.337691   
     71. B(H  51,C  22)                  1.1078         0.337327   
     72. B(H  52,C  22)                  1.1075         0.337664   
     73. B(H  53,C  22)                  1.1072         0.338103   
     74. B(H  54,C  23)                  1.1085         0.336499   
     75. B(H  55,C  23)                  1.1052         0.340515   
     76. B(H  56,C  23)                  1.1080         0.337005   
     77. B(H  57,C  25)                  1.1035         0.342729   
     78. B(H  58,C  28)                  1.1001         0.347089   
     79. B(H  59,C  29)                  1.1021         0.344561   
     80. A(C   1,C   0,H  32)          109.6769         0.219385   
     81. A(C   1,C   0,H  33)          111.2264         0.219948   
     82. A(H  33,C   0,H  34)          108.5870         0.117194   
     83. A(H  32,C   0,H  33)          108.0220         0.111140   
     84. A(C   1,C   0,H  34)          111.4097         0.220685   
     85. A(H  32,C   0,H  34)          107.7960         0.111383   
     86. A(C   0,C   1,O   2)          108.3017         0.037859   
     87. A(C   0,C   1,C   3)          110.1867         0.074742   
     88. A(O   2,C   1,C   3)          106.9008         0.032729   
     89. A(C   3,C   1,C   4)          113.1988         0.061997   
     90. A(O   2,C   1,C   4)          102.7826         0.040031   
     91. A(C   0,C   1,C   4)          114.8023         0.059516   
     92. A(C   1,O   2,B   8)          107.8027         0.112526   
     93. A(H  36,C   3,H  37)          108.5305         0.118362   
     94. A(C   1,C   3,H  37)          111.7618         0.220084   
     95. A(C   1,C   3,H  35)          108.9557         0.218521   
     96. A(H  35,C   3,H  36)          107.7847         0.109153   
     97. A(H  35,C   3,H  37)          108.3022         0.111110   
     98. A(C   1,C   3,H  36)          111.3802         0.220317   
     99. A(C   1,C   4,C   5)          114.8190         0.059999   
    100. A(C   6,C   4,O   7)          107.2895         0.033758   
    101. A(C   5,C   4,O   7)          108.0040         0.040734   
    102. A(C   1,C   4,O   7)          102.8304         0.040215   
    103. A(C   5,C   4,C   6)          110.1151         0.075007   
    104. A(C   1,C   4,C   6)          113.1416         0.063168   
    105. A(H  38,C   5,H  40)          108.1268         0.111216   
    106. A(H  38,C   5,H  39)          108.7606         0.117650   
    107. A(C   4,C   5,H  40)          109.5299         0.219829   
    108. A(H  39,C   5,H  40)          107.6654         0.110694   
    109. A(C   4,C   5,H  39)          111.3603         0.220980   
    110. A(C   4,C   5,H  38)          111.2758         0.219989   
    111. A(H  42,C   6,H  43)          107.8902         0.109727   
    112. A(H  41,C   6,H  42)          108.2238         0.110883   
    113. A(C   4,C   6,H  43)          111.4517         0.220116   
    114. A(C   4,C   6,H  42)          109.0378         0.218414   
    115. A(C   4,C   6,H  41)          111.6585         0.220071   
    116. A(H  41,C   6,H  43)          108.4558         0.118082   
    117. A(C   4,O   7,B   8)          107.9798         0.111692   
    118. A(O   2,B   8,O   7)          113.0656         0.114236   
    119. A(O   7,B   8,C   9)          123.7401         0.114492   
    120. A(O   2,B   8,C   9)          123.1710         0.114017   
    121. A(B   8,C   9,C  26)          117.0592         0.133909   
    122. A(C  10,C   9,C  26)          124.1664         0.043017   
    123. A(B   8,C   9,C  10)          118.7744         0.158324   
    124. A(C  11,C  10,H  44)          116.3042         0.113215   
    125. A(C   9,C  10,C  11)          128.5405         0.057891   
    126. A(C   9,C  10,H  44)          114.7542         0.152395   
    127. A(H  12,C  11,C  13)          116.2288         0.182083   
    128. A(C  10,C  11,C  13)          125.9049         0.046397   
    129. A(C  10,C  11,H  12)          117.5712         0.182781   
    130. A(H  14,C  13,C  30)          109.2949         0.039557   
    131. A(C  11,C  13,C  30)           90.9999         0.020847   
    132. A(C  15,C  13,C  30)          119.5435         0.029658   
    133. A(C  11,C  13,C  15)          117.3314         0.027072   
    134. A(C  11,C  13,H  14)          109.4813         0.038110   
    135. A(H  14,C  13,C  15)          108.9259         0.048925   
    136. A(C  13,C  15,B  16)          119.3907         0.218296   
    137. A(B  16,C  15,C  25)          118.8316         0.221240   
    138. A(C  13,C  15,C  25)          121.7298         0.075112   
    139. A(C  15,B  16,O  17)          123.0189         0.259572   
    140. A(O  17,B  16,O  24)          113.0517         0.161552   
    141. A(C  15,B  16,O  24)          123.9268         0.267043   
    142. A(B  16,O  17,C  18)          107.8529         0.123037   
    143. A(C  19,C  18,C  20)          110.1607         0.074856   
    144. A(O  17,C  18,C  20)          107.0883         0.032267   
    145. A(O  17,C  18,C  19)          108.2524         0.037588   
    146. A(C  20,C  18,C  21)          113.0930         0.061994   
    147. A(C  19,C  18,C  21)          114.8339         0.059697   
    148. A(O  17,C  18,C  21)          102.7630         0.041125   
    149. A(H  45,C  19,H  46)          108.0822         0.110983   
    150. A(H  46,C  19,H  47)          108.6305         0.117223   
    151. A(H  45,C  19,H  47)          107.7698         0.111416   
    152. A(C  18,C  19,H  47)          111.4528         0.220836   
    153. A(C  18,C  19,H  46)          111.1433         0.219996   
    154. A(C  18,C  19,H  45)          109.6423         0.219603   
    155. A(H  48,C  20,H  50)          108.3730         0.110915   
    156. A(H  49,C  20,H  50)          108.5111         0.117649   
    157. A(C  18,C  20,H  50)          111.4878         0.220008   
    158. A(H  48,C  20,H  49)          107.8593         0.109766   
    159. A(C  18,C  20,H  49)          111.4008         0.220467   
    160. A(C  18,C  20,H  48)          109.0957         0.218804   
    161. A(C  23,C  21,O  24)          108.3472         0.038196   
    162. A(C  22,C  21,O  24)          107.2921         0.032496   
    163. A(C  18,C  21,O  24)          102.7247         0.041207   
    164. A(C  22,C  21,C  23)          109.9393         0.074629   
    165. A(C  18,C  21,C  23)          114.6829         0.059668   
    166. A(C  18,C  21,C  22)          113.2511         0.061729   
    167. A(H  51,C  22,H  52)          108.2583         0.110644   
    168. A(H  52,C  22,H  53)          107.8272         0.109585   
    169. A(C  21,C  22,H  53)          111.5214         0.220228   
    170. A(C  21,C  22,H  52)          108.9520         0.218441   
    171. A(C  21,C  22,H  51)          111.6332         0.219857   
    172. A(H  51,C  22,H  53)          108.5239         0.118360   
    173. A(H  55,C  23,H  56)          107.6992         0.111498   
    174. A(C  21,C  23,H  56)          109.7054         0.219663   
    175. A(C  21,C  23,H  55)          111.4826         0.220659   
    176. A(C  21,C  23,H  54)          111.0738         0.219669   
    177. A(H  54,C  23,H  55)          108.7342         0.117275   
    178. A(H  54,C  23,H  56)          108.0231         0.110820   
    179. A(B  16,O  24,C  21)          107.9216         0.121089   
    180. A(C  26,C  25,H  57)          116.3917         0.189875   
    181. A(C  15,C  25,H  57)          117.8581         0.193985   
    182. A(C  15,C  25,C  26)          125.7385         0.077199   
    183. A(H  27,C  26,C  28)          109.6483         0.040733   
    184. A(C  25,C  26,C  28)          120.1861         0.029355   
    185. A(C   9,C  26,C  28)           85.6984         0.021524   
    186. A(C  25,C  26,H  27)          110.7072         0.052640   
    187. A(C   9,C  26,H  27)          109.1655         0.040525   
    188. A(C   9,C  26,C  25)          118.9862         0.029174   
    189. A(C  29,C  28,H  58)          117.9757         0.185006   
    190. A(C  26,C  28,H  58)          115.3467         0.182525   
    191. A(C  26,C  28,C  29)          126.6674         0.051022   
    192. A(C  30,C  29,H  59)          116.5290         0.189276   
    193. A(C  28,C  29,C  30)          126.7457         0.068802   
    194. A(C  28,C  29,H  59)          116.2157         0.188412   
    195. A(C  29,C  30,H  31)          117.1593         0.183610   
    196. A(C  13,C  30,H  31)          115.9490         0.182620   
    197. A(C  13,C  30,C  29)          126.5401         0.046368   
    198. D(C   3,C   1,C   0,H  34)    170.5206         0.025987   
    199. D(O   2,C   1,C   0,H  32)    -65.3504         0.026623   
    200. D(O   2,C   1,C   0,H  33)    175.2186         0.026615   
    201. D(C   3,C   1,C   0,H  32)     51.2555         0.026264   
    202. D(C   4,C   1,C   0,H  32)   -179.5279         0.026436   
    203. D(C   4,C   1,C   0,H  33)     61.0411         0.026204   
    204. D(O   2,C   1,C   0,H  34)     53.9148         0.026560   
    205. D(C   3,C   1,C   0,H  33)    -68.1755         0.025965   
    206. D(C   4,C   1,C   0,H  34)    -60.2628         0.026209   
    207. D(B   8,O   2,C   1,C   3)     99.8353         0.041774   
    208. D(B   8,O   2,C   1,C   0)   -141.4553         0.042313   
    209. D(B   8,O   2,C   1,C   4)    -19.5776         0.012630   
    210. D(H  35,C   3,C   1,O   2)     57.1592         0.028774   
    211. D(H  35,C   3,C   1,C   4)    169.6044         0.027325   
    212. D(H  35,C   3,C   1,C   0)    -60.3174         0.026368   
    213. D(H  36,C   3,C   1,O   2)    -61.6104         0.028683   
    214. D(H  37,C   3,C   1,C   4)    -70.7507         0.026987   
    215. D(H  37,C   3,C   1,O   2)    176.8041         0.028639   
    216. D(H  37,C   3,C   1,C   0)     59.3275         0.026037   
    217. D(H  36,C   3,C   1,C   4)     50.8348         0.027039   
    218. D(H  36,C   3,C   1,C   0)   -179.0870         0.026090   
    219. D(O   7,C   4,C   1,C   3)    -91.7534         0.025550   
    220. D(O   7,C   4,C   1,O   2)     23.1798         0.014688   
    221. D(C   6,C   4,C   1,C   3)    152.8537         0.024997   
    222. D(C   6,C   4,C   1,O   2)    -92.2131         0.023678   
    223. D(C   6,C   4,C   1,C   0)     25.1458         0.024022   
    224. D(C   5,C   4,C   1,C   3)     25.2848         0.024044   
    225. D(O   7,C   4,C   1,C   0)    140.5387         0.025419   
    226. D(C   5,C   4,C   1,C   0)   -102.4231         0.023497   
    227. D(C   5,C   4,C   1,O   2)    140.2180         0.024440   
    228. D(H  38,C   5,C   4,C   1)     61.0031         0.026252   
    229. D(H  38,C   5,C   4,C   6)    -68.0841         0.026072   
    230. D(H  40,C   5,C   4,C   1)   -179.4998         0.026449   
    231. D(H  40,C   5,C   4,C   6)     51.4130         0.026463   
    232. D(H  39,C   5,C   4,O   7)     53.5287         0.026805   
    233. D(H  39,C   5,C   4,C   1)    -60.5230         0.026307   
    234. D(H  39,C   5,C   4,C   6)    170.3898         0.026023   
    235. D(H  40,C   5,C   4,O   7)    -65.4481         0.026699   
    236. D(H  38,C   5,C   4,O   7)    175.0547         0.026663   
    237. D(H  43,C   6,C   4,O   7)    -62.3416         0.029017   
    238. D(H  43,C   6,C   4,C   1)     50.3617         0.027038   
    239. D(H  42,C   6,C   4,O   7)     56.6543         0.029029   
    240. D(H  42,C   6,C   4,C   5)    -60.6514         0.026660   
    241. D(H  42,C   6,C   4,C   1)    169.3575         0.027234   
    242. D(H  41,C   6,C   4,O   7)    176.1911         0.028784   
    243. D(H  43,C   6,C   4,C   5)   -179.6472         0.026287   
    244. D(H  41,C   6,C   4,C   5)     58.8855         0.026412   
    245. D(H  41,C   6,C   4,C   1)    -71.1056         0.026987   
    246. D(B   8,O   7,C   4,C   6)    100.7791         0.040203   
    247. D(B   8,O   7,C   4,C   5)   -140.5429         0.040583   
    248. D(B   8,O   7,C   4,C   1)    -18.7611         0.011654   
    249. D(C   9,B   8,O   7,C   4)   -174.2779         0.025722   
    250. D(O   2,B   8,O   7,C   4)      7.4285         0.012661   
    251. D(C   9,B   8,O   2,C   1)   -169.4064         0.027596   
    252. D(O   7,B   8,O   2,C   1)      8.8983         0.013487   
    253. D(C  26,C   9,B   8,O   7)   -171.1877         0.006608   
    254. D(C  26,C   9,B   8,O   2)      6.9365         0.012200   
    255. D(C  10,C   9,B   8,O   2)   -172.9461         0.019812   
    256. D(C  10,C   9,B   8,O   7)      8.9297         0.007121   
    257. D(H  44,C  10,C   9,C  26)   -179.3279         0.011461   
    258. D(H  44,C  10,C   9,B   8)      0.5457         0.012609   
    259. D(C  11,C  10,C   9,C  26)     -6.9434         0.013928   
    260. D(C  11,C  10,C   9,B   8)    172.9302         0.020022   
    261. D(C  13,C  11,C  10,H  44)    174.6004         0.016144   
    262. D(C  13,C  11,C  10,C   9)      2.3156         0.013650   
    263. D(H  12,C  11,C  10,H  44)      1.0995         0.013418   
    264. D(H  12,C  11,C  10,C   9)   -171.1854         0.019186   
    265. D(C  30,C  13,C  11,H  12)     94.8296         0.023918   
    266. D(C  30,C  13,C  11,C  10)    -78.7485         0.021202   
    267. D(C  15,C  13,C  11,H  12)   -140.8270         0.020242   
    268. D(C  15,C  13,C  11,C  10)     45.5949         0.022491   
    269. D(H  14,C  13,C  11,H  12)    -16.0696         0.027562   
    270. D(H  14,C  13,C  11,C  10)    170.3523         0.032560   
    271. D(C  25,C  15,C  13,C  30)     52.6490         0.019985   
    272. D(C  25,C  15,C  13,H  14)    179.2227         0.019585   
    273. D(B  16,C  15,C  13,C  30)   -129.9001         0.019854   
    274. D(B  16,C  15,C  13,H  14)     -3.3263         0.018424   
    275. D(B  16,C  15,C  13,C  11)    121.7085         0.016732   
    276. D(C  25,C  15,C  13,C  11)    -55.7425         0.019556   
    277. D(O  24,B  16,C  15,C  25)      1.9751         0.006928   
    278. D(O  24,B  16,C  15,C  13)   -175.5501         0.006477   
    279. D(O  17,B  16,C  15,C  25)   -178.6501         0.011421   
    280. D(O  17,B  16,C  15,C  13)      3.8247         0.008059   
    281. D(C  18,O  17,B  16,O  24)      8.0469         0.011117   
    282. D(C  18,O  17,B  16,C  15)   -171.3894         0.013603   
    283. D(C  21,C  18,O  17,B  16)    -19.3013         0.011707   
    284. D(C  19,C  18,O  17,B  16)   -141.1817         0.040663   
    285. D(C  20,C  18,O  17,B  16)    100.0636         0.040675   
    286. D(H  47,C  19,C  18,C  21)    -60.2073         0.026372   
    287. D(H  47,C  19,C  18,C  20)    170.7199         0.025997   
    288. D(H  47,C  19,C  18,O  17)     53.9317         0.026578   
    289. D(H  46,C  19,C  18,C  21)     61.1244         0.026382   
    290. D(H  46,C  19,C  18,C  20)    -67.9485         0.026001   
    291. D(H  46,C  19,C  18,O  17)    175.2634         0.026584   
    292. D(H  45,C  19,C  18,C  21)   -179.4444         0.026607   
    293. D(H  45,C  19,C  18,C  20)     51.4828         0.026139   
    294. D(H  45,C  19,C  18,O  17)    -65.3054         0.026751   
    295. D(H  50,C  20,C  18,C  21)    -71.0715         0.027260   
    296. D(H  50,C  20,C  18,C  19)     58.9387         0.026086   
    297. D(H  50,C  20,C  18,O  17)    176.4500         0.028789   
    298. D(H  49,C  20,C  18,C  21)     50.3113         0.027280   
    299. D(H  49,C  20,C  18,C  19)   -179.6785         0.026133   
    300. D(H  49,C  20,C  18,O  17)    -62.1671         0.028773   
    301. D(H  48,C  20,C  18,C  21)    169.2748         0.027481   
    302. D(H  48,C  20,C  18,C  19)    -60.7150         0.026329   
    303. D(H  48,C  20,C  18,O  17)     56.7963         0.028981   
    304. D(O  24,C  21,C  18,C  20)    -91.6172         0.023685   
    305. D(O  24,C  21,C  18,C  19)    140.7803         0.023727   
    306. D(O  24,C  21,C  18,O  17)     23.4778         0.014583   
    307. D(C  23,C  21,C  18,C  20)     25.7009         0.024121   
    308. D(C  23,C  21,C  18,C  19)   -101.9016         0.023525   
    309. D(C  23,C  21,C  18,O  17)    140.7959         0.023517   
    310. D(C  22,C  21,C  18,C  20)    152.9986         0.024984   
    311. D(C  22,C  21,C  18,C  19)     25.3961         0.024111   
    312. D(C  22,C  21,C  18,O  17)    -91.9064         0.023445   
    313. D(H  53,C  22,C  21,O  24)    -62.0362         0.028775   
    314. D(H  53,C  22,C  21,C  18)     50.5978         0.027275   
    315. D(H  52,C  22,C  21,O  24)     56.8693         0.029018   
    316. D(H  52,C  22,C  21,C  23)    -60.7526         0.026446   
    317. D(H  52,C  22,C  21,C  18)    169.5033         0.027513   
    318. D(H  51,C  22,C  21,O  24)    176.3774         0.028744   
    319. D(H  53,C  22,C  21,C  23)   -179.6581         0.026230   
    320. D(H  51,C  22,C  21,C  23)     58.7555         0.026208   
    321. D(H  51,C  22,C  21,C  18)    -70.9885         0.027247   
    322. D(H  54,C  23,C  21,O  24)    174.8020         0.026601   
    323. D(H  54,C  23,C  21,C  22)    -68.2335         0.026013   
    324. D(H  54,C  23,C  21,C  18)     60.7345         0.026419   
    325. D(H  56,C  23,C  21,O  24)    -65.8433         0.026747   
    326. D(H  56,C  23,C  21,C  22)     51.1212         0.026179   
    327. D(H  56,C  23,C  21,C  18)   -179.9108         0.026607   
    328. D(H  55,C  23,C  21,O  24)     53.3657         0.026627   
    329. D(H  55,C  23,C  21,C  22)    170.3302         0.026014   
    330. D(H  55,C  23,C  21,C  18)    -60.7018         0.026388   
    331. D(B  16,O  24,C  21,C  23)   -141.2926         0.040465   
    332. D(B  16,O  24,C  21,C  22)    100.0522         0.040168   
    333. D(B  16,O  24,C  21,C  18)    -19.5620         0.011670   
    334. D(C  21,O  24,B  16,O  17)      8.4975         0.010981   
    335. D(C  21,O  24,B  16,C  15)   -172.0722         0.012951   
    336. D(H  57,C  25,C  15,B  16)      1.0254         0.009916   
    337. D(H  57,C  25,C  15,C  13)    178.4902         0.009794   
    338. D(C  26,C  25,C  15,B  16)   -177.6810         0.012505   
    339. D(C  26,C  25,C  15,C  13)     -0.2162         0.008524   
    340. D(C  28,C  26,C  25,H  57)    131.4675         0.016271   
    341. D(C  28,C  26,C  25,C  15)    -49.8093         0.021181   
    342. D(H  27,C  26,C  25,H  57)      1.9922         0.016504   
    343. D(H  27,C  26,C  25,C  15)   -179.2846         0.020156   
    344. D(C   9,C  26,C  25,H  57)   -125.6441         0.017853   
    345. D(C   9,C  26,C  25,C  15)     53.0791         0.021252   
    346. D(C  28,C  26,C   9,C  10)     85.3751         0.019883   
    347. D(C  28,C  26,C   9,B   8)    -94.5005         0.021096   
    348. D(H  27,C  26,C   9,C  10)   -165.3052         0.030921   
    349. D(H  27,C  26,C   9,B   8)     14.8192         0.027131   
    350. D(C  25,C  26,C   9,C  10)    -36.9529         0.021104   
    351. D(C  25,C  26,C   9,B   8)    143.1715         0.024255   
    352. D(H  58,C  28,C  26,H  27)    -15.2099         0.026249   
    353. D(H  58,C  28,C  26,C  25)   -145.1537         0.018760   
    354. D(H  58,C  28,C  26,C   9)     93.6179         0.021132   
    355. D(C  29,C  28,C  26,H  27)    165.9833         0.031628   
    356. D(C  29,C  28,C  26,C  25)     36.0395         0.020925   
    357. D(C  29,C  28,C  26,C   9)    -85.1889         0.021641   
    358. D(H  59,C  29,C  28,H  58)     -1.6741         0.013483   
    359. D(H  59,C  29,C  28,C  26)    177.1049         0.012708   
    360. D(C  30,C  29,C  28,H  58)   -173.1509         0.015131   
    361. D(C  30,C  29,C  28,C  26)      5.6282         0.014697   
    362. D(H  31,C  30,C  29,H  59)     -0.9015         0.014803   
    363. D(H  31,C  30,C  29,C  28)    170.5519         0.017024   
    364. D(C  13,C  30,C  29,H  59)   -173.7834         0.012470   
    365. D(C  13,C  30,C  29,C  28)     -2.3300         0.013289   
    366. D(H  31,C  30,C  13,C  15)    144.3203         0.018961   
    367. D(H  31,C  30,C  13,H  14)     17.9195         0.027365   
    368. D(H  31,C  30,C  13,C  11)    -93.1506         0.022544   
    369. D(C  29,C  30,C  13,C  15)    -42.7226         0.020639   
    370. D(C  29,C  30,C  13,H  14)   -169.1234         0.031471   
    371. D(C  29,C  30,C  13,C  11)     79.8064         0.021468   
    -----------------------------------------------------------------

Number of atoms                         .... 60
Number of degrees of freedom            .... 371

         *************************************************************
         *                GEOMETRY OPTIMIZATION CYCLE   1            *
         *************************************************************


           ************************************************************
           *        Program running with 16 parallel MPI-processes    *
           *              working on a common directory               *
           ************************************************************
------------------------------------------------------------------------------
                           ORCA GTO INTEGRAL CALCULATION
                           -- RI-GTO INTEGRALS CHOSEN --
------------------------------------------------------------------------------
------------------------------------------------------------------------------
                   ___                                                        
                  /   \      - P O W E R E D   B Y -                         
                 /     \                                                     
                 |  |  |   _    _      __       _____    __    __             
                 |  |  |  | |  | |    /  \     |  _  \  |  |  /  |          
                  \  \/   | |  | |   /    \    | | | |  |  | /  /          
                 / \  \   | |__| |  /  /\  \   | |_| |  |  |/  /          
                |  |  |   |  __  | /  /__\  \  |    /   |      \           
                |  |  |   | |  | | |   __   |  |    \   |  |\   \          
                \     /   | |  | | |  |  |  |  | |\  \  |  | \   \       
                 \___/    |_|  |_| |__|  |__|  |_| \__\ |__|  \__/        
                                                                              
                      - O R C A' S   B I G   F R I E N D -                    
                                      &                                       
                       - I N T E G R A L  F E E D E R -                       
                                                                              
 v1 FN, 2020, v2 2021                                                         
------------------------------------------------------------------------------


Reading SHARK input file get_bvl_bvl_rxn1_TS.SHARKINP.tmp ... ok
----------------------
SHARK INTEGRAL PACKAGE
----------------------

Number of atoms                             ...     60
Number of basis functions                   ...    552
Number of shells                            ...    264
Maximum angular momentum                    ...      2
Integral batch strategy                     ... SHARK/LIBINT Hybrid
RI-J (if used) integral strategy            ... SPLIT-RIJ (Revised 2003 algorithm where possible)
Printlevel                                  ...      1
Contraction scheme used                     ... SEGMENTED contraction
Coulomb Range Separation                    ... NOT USED
Exchange Range Separation                   ... NOT USED
Finite Nucleus Model                        ... NOT USED
Auxiliary Coulomb fitting basis             ... AVAILABLE
   # of basis functions in Aux-J            ...   1724
   # of shells in Aux-J                     ...    580
   Maximum angular momentum in Aux-J        ...      4
Auxiliary J/K fitting basis                 ... NOT available
Auxiliary Correlation fitting basis         ... NOT available
Auxiliary 'external' fitting basis          ... NOT available
Integral threshold                          ...     2.500000e-11
Primitive cut-off                           ...     2.500000e-12
Primitive pair pre-selection threshold      ...     2.500000e-12

Calculating pre-screening integrals         ... done (  0.1 sec) Dimension = 264
Organizing shell pair data                  ... done (  0.1 sec)
Shell pair information
Total number of shell pairs                 ...     34980
Shell pairs after pre-screening             ...     21343
Total number of primitive shell pairs       ...    123716
Primitive shell pairs kept                  ...     48316
          la=0 lb=0:   6935 shell pairs
          la=1 lb=0:   8047 shell pairs
          la=1 lb=1:   2396 shell pairs
          la=2 lb=0:   2396 shell pairs
          la=2 lb=1:   1372 shell pairs
          la=2 lb=2:    197 shell pairs

Calculating one electron integrals          ... done (  0.0 sec)
Calculating RI/J V-Matrix + Cholesky decomp.... done (  0.3 sec)
Calculating Nuclear repulsion               ... done (  0.0 sec) ENN=   2636.545632147246 Eh

SHARK setup successfully completed in   0.7 seconds

Maximum memory used throughout the entire GTOINT-calculation: 34.4 MB


           ************************************************************
           *        Program running with 16 parallel MPI-processes    *
           *              working on a common directory               *
           ************************************************************
-------------------------------------------------------------------------------
                                 ORCA SCF
-------------------------------------------------------------------------------

------------
SCF SETTINGS
------------
Hamiltonian:
 Density Functional     Method          .... DFT(GTOs)
 Exchange Functional    Exchange        .... PBE
   PBE kappa parameter   XKappa         ....  0.804000
   PBE mue parameter    XMuePBE         ....  0.219520
 Correlation Functional Correlation     .... PBE
   PBE beta parameter  CBetaPBE         ....  0.066725
 LDA part of GGA corr.  LDAOpt          .... PW91-LDA
 Gradients option       PostSCFGGA      .... off
   Density functional embedding theory  .... OFF
   NL short-range parameter             ....  6.400000
 RI-approximation to the Coulomb term is turned on
   Number of AuxJ basis functions       .... 1724


General Settings:
 Integral files         IntName         .... get_bvl_bvl_rxn1_TS
 Hartree-Fock type      HFTyp           .... RHF
 Total Charge           Charge          ....    0
 Multiplicity           Mult            ....    1
 Number of Electrons    NEL             ....  206
 Basis Dimension        Dim             ....  552
 Nuclear Repulsion      ENuc            ....   2636.5456321472 Eh

Convergence Acceleration:
 DIIS                   CNVDIIS         .... on
   Start iteration      DIISMaxIt       ....    12
   Startup error        DIISStart       ....  0.200000
   # of expansion vecs  DIISMaxEq       ....     5
   Bias factor          DIISBfac        ....   1.050
   Max. coefficient     DIISMaxC        ....  10.000
 Trust-Rad. Augm. Hess. CNVTRAH         .... auto
   Auto Start mean grad. ratio tolernc. ....  1.125000
   Auto Start start iteration           ....     1
   Auto Start num. interpolation iter.  ....    10
   Max. Number of Micro iterations      ....    16
   Max. Number of Macro iterations      .... Maxiter - #DIIS iter
   Number of Davidson start vectors     ....     2
   Converg. threshold I  (grad. norm)   ....   1.000e-05
   Converg. threshold II (energy diff.) ....   1.000e-08
   Grad. Scal. Fac. for Micro threshold ....   0.100
   Minimum threshold for Micro iter.    ....   0.010
   NR start threshold (gradient norm)   ....   0.001
   Initial trust radius                 ....   0.400
   Minimum AH scaling param. (alpha)    ....   1.000
   Maximum AH scaling param. (alpha)    .... 1000.000
   Orbital update algorithm             .... Taylor
   White noise on init. David. guess    .... on
   Maximum white noise                  ....   0.010
   Quad. conv. algorithm                .... NR
 SOSCF                  CNVSOSCF        .... on
   Start iteration      SOSCFMaxIt      ....   150
   Startup grad/error   SOSCFStart      ....  0.003300
 Level Shifting         CNVShift        .... on
   Level shift para.    LevelShift      ....    0.2500
   Turn off err/grad.   ShiftErr        ....    0.0010
 Zerner damping         CNVZerner       .... off
 Static damping         CNVDamp         .... on
   Fraction old density DampFac         ....    0.7000
   Max. Damping (<1)    DampMax         ....    0.9800
   Min. Damping (>=0)   DampMin         ....    0.0000
   Turn off err/grad.   DampErr         ....    0.1000
 Fernandez-Rico         CNVRico         .... off

SCF Procedure:
 Maximum # iterations   MaxIter         ....   125
 SCF integral mode      SCFMode         .... Direct
   Integral package                     .... SHARK and LIBINT hybrid scheme
 Reset frequency        DirectResetFreq ....    20
 Integral Threshold     Thresh          ....  2.500e-11 Eh
 Primitive CutOff       TCut            ....  2.500e-12 Eh

Convergence Tolerance:
 Convergence Check Mode ConvCheckMode   .... Total+1el-Energy
 Convergence forced     ConvForced      .... 0
 Energy Change          TolE            ....  1.000e-08 Eh
 1-El. energy change                    ....  1.000e-05 Eh
 Orbital Gradient       TolG            ....  1.000e-05
 Orbital Rotation angle TolX            ....  1.000e-05
 DIIS Error             TolErr          ....  5.000e-07


Diagonalization of the overlap matrix:
Smallest eigenvalue                        ... 6.165e-04
Time for diagonalization                   ...    0.051 sec
Threshold for overlap eigenvalues          ... 1.000e-08
Number of eigenvalues below threshold      ... 0
Time for construction of square roots      ...    0.049 sec
Total time needed                          ...    0.102 sec

---------------------
INITIAL GUESS: MOREAD
---------------------
Guess MOs are being read from file: get_bvl_bvl_rxn1_TS.gbw
Input Geometry matches current geometry (good)
Input basis set matches current basis set (good)
MOs were renormalized
MOs were reorthogonalized (Cholesky)
                      ------------------
                      INITIAL GUESS DONE (   0.1 sec)
                      ------------------
-------------------
DFT GRID GENERATION
-------------------

General Integration Accuracy     IntAcc      ... 4.388
Radial Grid Type                 RadialGrid  ... OptM3 with GC (2021)
Angular Grid (max. ang.)         AngularGrid ... 4 (Lebedev-302)
Angular grid pruning method      GridPruning ... 4 (adaptive)
Weight generation scheme         WeightScheme... Becke
Basis function cutoff            BFCut       ... 1.0000e-11
Integration weight cutoff        WCut        ... 1.0000e-14
Angular grids for H and He will be reduced by one unit
Partially contracted basis set               ... off
Rotationally invariant grid construction     ... off

Total number of grid points                  ...   267451
Total number of batches                      ...     4214
Average number of points per batch           ...       63
Average number of grid points per atom       ...     4458
Time for grid setup =    1.771 sec

--------------
SCF ITERATIONS
--------------
ITER       Energy         Delta-E        Max-DP      RMS-DP      [F,P]     Damp
               ***  Starting incremental Fock matrix formation  ***
                      *** Initiating the SOSCF procedure ***
                      *** Re-Reading the Fockian *** 
                      *** Removing any level shift *** 
ITER      Energy       Delta-E        Grad      Rot      Max-DP    RMS-DP
  0  -1205.94189595 -1205.9418959482  0.000001  0.000001  0.000005  0.000000
               *** Restarting incremental Fock matrix formation ***
                 **** Energy Check signals convergence ****
              ***Rediagonalizing the Fockian in SOSCF/NRSCF***

               *****************************************************
               *                     SUCCESS                       *
               *           SCF CONVERGED AFTER   1 CYCLES          *
               *****************************************************


----------------
TOTAL SCF ENERGY
----------------

Total Energy       :        -1205.94189595 Eh          -32815.34729 eV

Components:
Nuclear Repulsion  :         2636.54563215 Eh           71744.05405 eV
Electronic Energy  :        -3842.48752810 Eh         -104559.40134 eV
One Electron Energy:        -6883.61103432 Eh         -187312.57903 eV
Two Electron Energy:         3041.12350623 Eh           82753.17769 eV

Virial components:
Potential Energy   :        -2398.74685688 Eh          -65273.22040 eV
Kinetic Energy     :         1192.80496094 Eh           32457.87311 eV
Virial Ratio       :            2.01101348


DFT components:
N(Alpha)           :      103.000175200115 electrons
N(Beta)            :      103.000175200115 electrons
N(Total)           :      206.000350400231 electrons
E(X)               :     -165.171164201187 Eh       
E(C)               :       -6.883712160549 Eh       
E(XC)              :     -172.054876361735 Eh       
DFET-embed. en.    :        0.000000000000 Eh       

---------------
SCF CONVERGENCE
---------------

  Last Energy change         ...   -2.0464e-11  Tolerance :   1.0000e-08
  Last MAX-Density change    ...    1.1231e-05  Tolerance :   1.0000e-07
  Last RMS-Density change    ...    1.3501e-07  Tolerance :   5.0000e-09
  Last Orbital Gradient      ...    1.5555e-06  Tolerance :   1.0000e-05
  Last Orbital Rotation      ...    5.7100e-06  Tolerance :   1.0000e-05

             **** THE GBW FILE WAS UPDATED (get_bvl_bvl_rxn1_TS.gbw) ****
             **** DENSITY get_bvl_bvl_rxn1_TS.scfp WAS UPDATED ****
             **** ENERGY FILE WAS UPDATED (get_bvl_bvl_rxn1_TS.en.tmp) ****
             **** THE GBW FILE WAS UPDATED (get_bvl_bvl_rxn1_TS.gbw) ****
             **** DENSITY get_bvl_bvl_rxn1_TS.scfp WAS UPDATED ****
----------------
ORBITAL ENERGIES
----------------

  NO   OCC          E(Eh)            E(eV) 
   0   2.0000     -18.756542      -510.3915 
   1   2.0000     -18.755949      -510.3753 
   2   2.0000     -18.754596      -510.3385 
   3   2.0000     -18.753736      -510.3151 
   4   2.0000      -9.959041      -270.9993 
   5   2.0000      -9.958494      -270.9844 
   6   2.0000      -9.958369      -270.9810 
   7   2.0000      -9.958014      -270.9713 
   8   2.0000      -9.909397      -269.6484 
   9   2.0000      -9.904284      -269.5093 
  10   2.0000      -9.902844      -269.4701 
  11   2.0000      -9.900384      -269.4031 
  12   2.0000      -9.898297      -269.3464 
  13   2.0000      -9.895353      -269.2662 
  14   2.0000      -9.894780      -269.2507 
  15   2.0000      -9.894257      -269.2364 
  16   2.0000      -9.894090      -269.2319 
  17   2.0000      -9.893151      -269.2063 
  18   2.0000      -9.892873      -269.1988 
  19   2.0000      -9.892705      -269.1942 
  20   2.0000      -9.892269      -269.1823 
  21   2.0000      -9.892008      -269.1752 
  22   2.0000      -9.890387      -269.1311 
  23   2.0000      -9.886204      -269.0173 
  24   2.0000      -9.882687      -268.9216 
  25   2.0000      -9.872403      -268.6417 
  26   2.0000      -6.522548      -177.4876 
  27   2.0000      -6.522128      -177.4761 
  28   2.0000      -0.954329       -25.9686 
  29   2.0000      -0.954236       -25.9661 
  30   2.0000      -0.887688       -24.1552 
  31   2.0000      -0.887290       -24.1444 
  32   2.0000      -0.773224       -21.0405 
  33   2.0000      -0.724851       -19.7242 
  34   2.0000      -0.722884       -19.6707 
  35   2.0000      -0.712966       -19.4008 
  36   2.0000      -0.677185       -18.4271 
  37   2.0000      -0.673613       -18.3299 
  38   2.0000      -0.671562       -18.2741 
  39   2.0000      -0.670465       -18.2443 
  40   2.0000      -0.631190       -17.1755 
  41   2.0000      -0.630656       -17.1610 
  42   2.0000      -0.603231       -16.4147 
  43   2.0000      -0.602681       -16.3998 
  44   2.0000      -0.591482       -16.0951 
  45   2.0000      -0.569101       -15.4860 
  46   2.0000      -0.562939       -15.3183 
  47   2.0000      -0.545908       -14.8549 
  48   2.0000      -0.541276       -14.7289 
  49   2.0000      -0.496526       -13.5112 
  50   2.0000      -0.494879       -13.4664 
  51   2.0000      -0.485892       -13.2218 
  52   2.0000      -0.485019       -13.1980 
  53   2.0000      -0.457184       -12.4406 
[...]
 99:   1148.75   0.004851   24.52  0.001318  (-0.024495 -0.026411  0.004513)
100:   1171.88   0.001615    8.16  0.000430  (-0.000160  0.007056  0.019500)
101:   1199.71   0.006625   33.48  0.001723  (-0.002024 -0.021479 -0.035465)
102:   1200.24   0.002443   12.35  0.000635  (-0.020909 -0.014030  0.001102)
103:   1200.69   0.004127   20.86  0.001073  (-0.029135  0.009072 -0.011893)
104:   1208.59   0.008137   41.12  0.002101  ( 0.014120 -0.027520 -0.033828)
105:   1223.78   0.001251    6.32  0.000319  ( 0.000578 -0.016794 -0.006059)
106:   1226.05   0.000195    0.99  0.000050  ( 0.003023  0.000626 -0.006331)
107:   1226.17   0.000088    0.44  0.000022  (-0.002420  0.002956  0.002772)
108:   1241.85   0.014389   72.72  0.003616  ( 0.024515 -0.012859 -0.053381)
109:   1242.88   0.005404   27.31  0.001357  ( 0.000097  0.026987  0.025071)
110:   1284.36   0.002696   13.63  0.000655  (-0.013521  0.008215  0.020119)
111:   1291.02   0.002563   12.95  0.000620  ( 0.024170  0.003076 -0.005100)
112:   1315.30   0.018120   91.57  0.004299  (-0.054221 -0.004717 -0.036564)
113:   1322.08   0.023823  120.39  0.005623  ( 0.048253  0.046888  0.033110)
114:   1331.76   0.005510   27.85  0.001291  (-0.017584 -0.025995  0.017501)
115:   1332.59   0.005750   29.06  0.001347  ( 0.016014 -0.029537  0.014756)
116:   1334.45   0.019153   96.79  0.004479  ( 0.014699 -0.012281 -0.064125)
117:   1334.77   0.002090   10.56  0.000489  (-0.007446  0.012122  0.016920)
118:   1336.90   0.049097  248.12  0.011460  ( 0.011644 -0.017574 -0.104957)
119:   1339.31   0.059348  299.92  0.013828  ( 0.063228 -0.045834 -0.087919)
120:   1342.17   0.005478   27.68  0.001274  ( 0.028376 -0.018650 -0.010980)
121:   1342.71   0.014396   72.75  0.003346  (-0.057706  0.003680 -0.001495)
122:   1347.33   0.026612  134.49  0.006164  (-0.005324 -0.057849 -0.052811)
123:   1350.46   0.000160    0.81  0.000037  (-0.000465  0.004622  0.003930)
124:   1351.64   0.013990   70.70  0.003230  (-0.004384  0.041840  0.038211)
125:   1380.99   0.032880  166.16  0.007430  (-0.020808  0.061085  0.057145)
126:   1389.68   0.000042    0.21  0.000009  ( 0.002024  0.000574 -0.002226)
127:   1389.74   0.000004    0.02  0.000001  (-0.000109  0.000951 -0.000239)
128:   1398.60   0.000514    2.60  0.000115  ( 0.007588  0.003712 -0.006588)
129:   1398.84   0.000469    2.37  0.000105  ( 0.003936 -0.004606  0.008242)
130:   1400.27   0.000434    2.19  0.000097  (-0.006195  0.000708  0.007601)
131:   1400.73   0.000174    0.88  0.000039  ( 0.001982 -0.004861 -0.003363)
132:   1404.86   0.005060   25.57  0.001124  (-0.017734 -0.004802  0.028043)
133:   1405.33   0.001066    5.39  0.000237  ( 0.009443  0.003331  0.011681)
134:   1411.23   0.037743  190.74  0.008346  ( 0.042983 -0.014633 -0.079275)
135:   1418.54   0.003740   18.90  0.000823  ( 0.015900  0.018596  0.014972)
136:   1418.73   0.000739    3.74  0.000163  (-0.003160  0.005986 -0.010806)
137:   1419.23   0.005359   27.08  0.001178  (-0.001652 -0.023097 -0.025342)
138:   1425.01   0.000290    1.47  0.000064  ( 0.004871 -0.006315  0.000035)
139:   1425.05   0.000645    3.26  0.000141  ( 0.009329  0.004076  0.006135)
140:   1428.18   0.012508   63.21  0.002733  ( 0.019008 -0.013695 -0.046737)
141:   1428.59   0.003637   18.38  0.000794  ( 0.006723  0.023498  0.014036)
142:   1440.55   0.001459    7.37  0.000316  ( 0.002796 -0.008843 -0.015170)
143:   1440.94   0.001458    7.37  0.000316  ( 0.009032 -0.000388 -0.015298)
144:   1464.78   0.000246    1.24  0.000052  (-0.000759  0.005407  0.004745)
145:   1505.00   0.010962   55.40  0.002273  ( 0.011657 -0.032027 -0.033339)
146:   1594.39   0.006543   33.07  0.001281  ( 0.000419 -0.025437 -0.025168)
147:   1677.64   0.016503   83.40  0.003070  (-0.021139  0.007518  0.050660)
148:   2978.94   0.000017    0.09  0.000002  ( 0.000194  0.001089 -0.000744)
149:   2979.57   0.000030    0.15  0.000003  ( 0.000570  0.000327 -0.001651)
150:   2979.69   0.003591   18.15  0.000376  ( 0.007882  0.015733 -0.008153)
151:   2980.59   0.003597   18.18  0.000377  ( 0.008306 -0.016802  0.005034)
152:   2983.91   0.001776    8.97  0.000186  (-0.008862 -0.008793 -0.005463)
153:   2984.01   0.001872    9.46  0.000196  ( 0.011509 -0.006647  0.004376)
154:   2986.15   0.006858   34.66  0.000717  (-0.005543  0.011506  0.023528)
155:   2986.27   0.002490   12.58  0.000260  ( 0.009318  0.002106 -0.012996)
156:   3053.68   0.001311    6.62  0.000134  (-0.005070 -0.004998 -0.009124)
157:   3054.37   0.000400    2.02  0.000041  ( 0.004227  0.001450  0.004576)
158:   3069.33   0.000400    2.02  0.000041  ( 0.006075  0.001303 -0.001435)
159:   3069.62   0.000100    0.51  0.000010  ( 0.001991 -0.001172 -0.002197)
160:   3070.05   0.001423    7.19  0.000145  ( 0.009202  0.003494  0.006907)
161:   3070.24   0.001444    7.30  0.000147  (-0.011633 -0.000143 -0.003375)
162:   3075.35   0.001272    6.43  0.000129  (-0.004625  0.007269  0.007407)
163:   3076.57   0.001723    8.71  0.000175  ( 0.010724 -0.002645  0.007266)
164:   3076.65   0.000923    4.67  0.000094  (-0.005243 -0.000117  0.008133)
165:   3077.76   0.005061   25.57  0.000513  (-0.020173  0.009797  0.003188)
166:   3077.82   0.002662   13.45  0.000270  (-0.013545 -0.008437 -0.003910)
167:   3079.06   0.003153   15.93  0.000320  ( 0.016084  0.006602  0.004153)
168:   3079.15   0.007262   36.70  0.000736  (-0.004092 -0.012453 -0.023753)
169:   3080.22   0.006392   32.30  0.000648  ( 0.010147 -0.002417 -0.023212)
170:   3084.71   0.000966    4.88  0.000098  ( 0.006113 -0.007767 -0.000234)
171:   3086.68   0.001546    7.81  0.000156  (-0.012280 -0.002343  0.000081)
172:   3086.96   0.001599    8.08  0.000162  (-0.006736 -0.008439  0.006714)
173:   3093.26   0.001927    9.74  0.000194  (-0.000511  0.007723 -0.011597)
174:   3093.72   0.001588    8.03  0.000160  (-0.005218  0.000167  0.011531)
175:   3094.05   0.002566   12.97  0.000259  ( 0.010618 -0.012029 -0.001164)
176:   3094.18   0.003139   15.87  0.000317  (-0.006942 -0.016158  0.002714)
177:   3107.10   0.001300    6.57  0.000131  (-0.006328  0.008701 -0.003854)
178:   3110.18   0.003700   18.70  0.000371  ( 0.016665  0.008324  0.004926)
179:   3119.94   0.002100   10.61  0.000210  ( 0.004963  0.007195 -0.011561)

* The epsilon (eps) is given for a Dirac delta lineshape.
** The dipole moment derivative (T) already includes vibrational overlap.

The first frequency considered to be a vibration is 7
The total number of vibrations considered is 173


--------------------------
THERMOCHEMISTRY AT 298.15K
--------------------------

Temperature         ... 298.15 K
Pressure            ... 1.00 atm
Total Mass          ... 382.11 AMU

Throughout the following assumptions are being made:
  (1) The electronic state is orbitally nondegenerate
  (2) There are no thermally accessible electronically excited states
  (3) Hindered rotations indicated by low frequency modes are not
      treated as such but are treated as vibrations and this may
      cause some error
  (4) All equations used are the standard statistical mechanics
      equations for an ideal gas
  (5) All vibrations are strictly harmonic

freq.      16.78  E(vib)   ...       0.57 
freq.      20.65  E(vib)   ...       0.56 
freq.      26.30  E(vib)   ...       0.56 
freq.      42.14  E(vib)   ...       0.53 
freq.      59.44  E(vib)   ...       0.51 
freq.      77.77  E(vib)   ...       0.49 
freq.      91.83  E(vib)   ...       0.47 
freq.      98.04  E(vib)   ...       0.46 
freq.     101.96  E(vib)   ...       0.46 
freq.     129.18  E(vib)   ...       0.43 
freq.     154.58  E(vib)   ...       0.40 
freq.     209.37  E(vib)   ...       0.34 
freq.     221.10  E(vib)   ...       0.33 
freq.     223.48  E(vib)   ...       0.33 
freq.     231.12  E(vib)   ...       0.32 
freq.     235.68  E(vib)   ...       0.32 
freq.     246.63  E(vib)   ...       0.31 
freq.     260.35  E(vib)   ...       0.30 
freq.     275.67  E(vib)   ...       0.28 
freq.     286.04  E(vib)   ...       0.27 
freq.     288.15  E(vib)   ...       0.27 
freq.     293.13  E(vib)   ...       0.27 
freq.     300.32  E(vib)   ...       0.26 
freq.     300.58  E(vib)   ...       0.26 
freq.     302.13  E(vib)   ...       0.26 
freq.     308.31  E(vib)   ...       0.26 
freq.     312.53  E(vib)   ...       0.25 
freq.     319.47  E(vib)   ...       0.25 
freq.     331.46  E(vib)   ...       0.24 
freq.     349.86  E(vib)   ...       0.23 
freq.     356.22  E(vib)   ...       0.22 
freq.     358.70  E(vib)   ...       0.22 
freq.     366.43  E(vib)   ...       0.22 
freq.     368.66  E(vib)   ...       0.21 
freq.     381.41  E(vib)   ...       0.21 
freq.     404.02  E(vib)   ...       0.19 
freq.     437.83  E(vib)   ...       0.17 
freq.     443.23  E(vib)   ...       0.17 
freq.     468.77  E(vib)   ...       0.16 
freq.     497.94  E(vib)   ...       0.14 
freq.     501.19  E(vib)   ...       0.14 
freq.     509.93  E(vib)   ...       0.14 
freq.     514.69  E(vib)   ...       0.13 
freq.     520.50  E(vib)   ...       0.13 
freq.     549.78  E(vib)   ...       0.12 
freq.     555.38  E(vib)   ...       0.12 
freq.     571.15  E(vib)   ...       0.11 
freq.     572.67  E(vib)   ...       0.11 
freq.     614.73  E(vib)   ...       0.10 
freq.     655.12  E(vib)   ...       0.08 
freq.     660.11  E(vib)   ...       0.08 
freq.     660.22  E(vib)   ...       0.08 
freq.     669.82  E(vib)   ...       0.08 
freq.     689.14  E(vib)   ...       0.07 
freq.     741.00  E(vib)   ...       0.06 
freq.     758.75  E(vib)   ...       0.06 
freq.     768.54  E(vib)   ...       0.06 
freq.     791.20  E(vib)   ...       0.05 
freq.     821.21  E(vib)   ...       0.05 
freq.     825.02  E(vib)   ...       0.04 
freq.     837.16  E(vib)   ...       0.04 
freq.     839.50  E(vib)   ...       0.04 
freq.     841.04  E(vib)   ...       0.04 
freq.     844.35  E(vib)   ...       0.04 
freq.     879.82  E(vib)   ...       0.04 
freq.     889.50  E(vib)   ...       0.04 
freq.     901.26  E(vib)   ...       0.03 
freq.     901.82  E(vib)   ...       0.03 
freq.     902.84  E(vib)   ...       0.03 
freq.     903.10  E(vib)   ...       0.03 
freq.     903.38  E(vib)   ...       0.03 
freq.     922.69  E(vib)   ...       0.03 
freq.     934.00  E(vib)   ...       0.03 
freq.     934.59  E(vib)   ...       0.03 
freq.     935.52  E(vib)   ...       0.03 
freq.     937.76  E(vib)   ...       0.03 
freq.     941.11  E(vib)   ...       0.03 
freq.     947.67  E(vib)   ...       0.03 
freq.     961.84  E(vib)   ...       0.03 
freq.     962.28  E(vib)   ...       0.03 
freq.     964.95  E(vib)   ...       0.03 
freq.     969.87  E(vib)   ...       0.03 
freq.     978.38  E(vib)   ...       0.03 
freq.    1010.14  E(vib)   ...       0.02 
freq.    1045.19  E(vib)   ...       0.02 
freq.    1092.51  E(vib)   ...       0.02 
freq.    1092.95  E(vib)   ...       0.02 
freq.    1113.14  E(vib)   ...       0.01 
freq.    1126.77  E(vib)   ...       0.01 
freq.    1131.31  E(vib)   ...       0.01 
freq.    1146.62  E(vib)   ...       0.01 
freq.    1148.37  E(vib)   ...       0.01 
freq.    1148.75  E(vib)   ...       0.01 
freq.    1171.88  E(vib)   ...       0.01 
freq.    1199.71  E(vib)   ...       0.01 
freq.    1200.24  E(vib)   ...       0.01 
freq.    1200.69  E(vib)   ...       0.01 
freq.    1208.59  E(vib)   ...       0.01 
freq.    1223.78  E(vib)   ...       0.01 
freq.    1226.05  E(vib)   ...       0.01 
freq.    1226.17  E(vib)   ...       0.01 
freq.    1241.85  E(vib)   ...       0.01 
freq.    1242.88  E(vib)   ...       0.01 
freq.    1284.36  E(vib)   ...       0.01 
freq.    1291.02  E(vib)   ...       0.01 
freq.    1315.30  E(vib)   ...       0.01 
freq.    1322.08  E(vib)   ...       0.01 
freq.    1331.76  E(vib)   ...       0.01 
freq.    1332.59  E(vib)   ...       0.01 
freq.    1334.45  E(vib)   ...       0.01 
freq.    1334.77  E(vib)   ...       0.01 
freq.    1336.90  E(vib)   ...       0.01 
freq.    1339.31  E(vib)   ...       0.01 
freq.    1342.17  E(vib)   ...       0.01 
freq.    1342.71  E(vib)   ...       0.01 
freq.    1347.33  E(vib)   ...       0.01 
freq.    1350.46  E(vib)   ...       0.01 
freq.    1351.64  E(vib)   ...       0.01 
freq.    1380.99  E(vib)   ...       0.01 
freq.    1389.68  E(vib)   ...       0.00 
freq.    1389.74  E(vib)   ...       0.00 
freq.    1398.60  E(vib)   ...       0.00 
freq.    1398.84  E(vib)   ...       0.00 
freq.    1400.27  E(vib)   ...       0.00 
freq.    1400.73  E(vib)   ...       0.00 
freq.    1404.86  E(vib)   ...       0.00 
freq.    1405.33  E(vib)   ...       0.00 
freq.    1411.23  E(vib)   ...       0.00 
freq.    1418.54  E(vib)   ...       0.00 
freq.    1418.73  E(vib)   ...       0.00 
freq.    1419.23  E(vib)   ...       0.00 
freq.    1425.01  E(vib)   ...       0.00 
freq.    1425.05  E(vib)   ...       0.00 
freq.    1428.18  E(vib)   ...       0.00 
freq.    1428.59  E(vib)   ...       0.00 
freq.    1440.55  E(vib)   ...       0.00 
freq.    1440.94  E(vib)   ...       0.00 
freq.    1464.78  E(vib)   ...       0.00 
freq.    1505.00  E(vib)   ...       0.00 
freq.    1594.39  E(vib)   ...       0.00 
freq.    1677.64  E(vib)   ...       0.00 
freq.    2978.94  E(vib)   ...       0.00 
freq.    2979.57  E(vib)   ...       0.00 
freq.    2979.69  E(vib)   ...       0.00 
freq.    2980.59  E(vib)   ...       0.00 
freq.    2983.91  E(vib)   ...       0.00 
freq.    2984.01  E(vib)   ...       0.00 
freq.    2986.15  E(vib)   ...       0.00 
freq.    2986.27  E(vib)   ...       0.00 
freq.    3053.68  E(vib)   ...       0.00 
freq.    3054.37  E(vib)   ...       0.00 
freq.    3069.33  E(vib)   ...       0.00 
freq.    3069.62  E(vib)   ...       0.00 
freq.    3070.05  E(vib)   ...       0.00 
freq.    3070.24  E(vib)   ...       0.00 
freq.    3075.35  E(vib)   ...       0.00 
freq.    3076.57  E(vib)   ...       0.00 
freq.    3076.65  E(vib)   ...       0.00 
freq.    3077.76  E(vib)   ...       0.00 
freq.    3077.82  E(vib)   ...       0.00 
freq.    3079.06  E(vib)   ...       0.00 
freq.    3079.15  E(vib)   ...       0.00 
freq.    3080.22  E(vib)   ...       0.00 
freq.    3084.71  E(vib)   ...       0.00 
freq.    3086.68  E(vib)   ...       0.00 
freq.    3086.96  E(vib)   ...       0.00 
freq.    3093.26  E(vib)   ...       0.00 
freq.    3093.72  E(vib)   ...       0.00 
freq.    3094.05  E(vib)   ...       0.00 
freq.    3094.18  E(vib)   ...       0.00 
freq.    3107.10  E(vib)   ...       0.00 
freq.    3110.18  E(vib)   ...       0.00 
freq.    3119.94  E(vib)   ...       0.00 

------------
INNER ENERGY
------------

The inner energy is: U= E(el) + E(ZPE) + E(vib) + E(rot) + E(trans)
    E(el)   - is the total energy from the electronic structure calculation
              = E(kin-el) + E(nuc-el) + E(el-el) + E(nuc-nuc)
    E(ZPE)  - the the zero temperature vibrational energy from the frequency calculation
    E(vib)  - the the finite temperature correction to E(ZPE) due to population
              of excited vibrational states
    E(rot)  - is the rotational thermal energy
    E(trans)- is the translational thermal energy

Summary of contributions to the inner energy U:
Electronic energy                ...  -1206.01963380 Eh
Zero point energy                ...      0.49719420 Eh     311.99 kcal/mol
Thermal vibrational correction   ...      0.02503653 Eh      15.71 kcal/mol
Thermal rotational correction    ...      0.00141627 Eh       0.89 kcal/mol
Thermal translational correction ...      0.00141627 Eh       0.89 kcal/mol
-----------------------------------------------------------------------
Total thermal energy                  -1205.49457053 Eh


Summary of corrections to the electronic energy:
(perhaps to be used in another calculation)
Total thermal correction                  0.02786907 Eh      17.49 kcal/mol
Non-thermal (ZPE) correction              0.49719420 Eh     311.99 kcal/mol
-----------------------------------------------------------------------
Total correction                          0.52506327 Eh     329.48 kcal/mol


--------
ENTHALPY
--------

The enthalpy is H = U + kB*T
                kB is Boltzmann's constant
Total free energy                 ...  -1205.49457053 Eh 
Thermal Enthalpy correction       ...      0.00094421 Eh       0.59 kcal/mol
-----------------------------------------------------------------------
Total Enthalpy                    ...  -1205.49362632 Eh


Note: Only C1 symmetry has been detected, increase convergence thresholds 
      if your molecule has a higher symmetry. Symmetry factor of 1.0 is   
      used for the rotational entropy correction. 
 

Note: Rotational entropy computed according to Herzberg 
Infrared and Raman Spectra, Chapter V,1, Van Nostrand Reinhold, 1945 
Point Group:  C1, Symmetry Number:   1  
Rotational constants in cm-1:     0.014337     0.002435     0.002335 

Vibrational entropy computed according to the QRRHO of S. Grimme
Chem.Eur.J. 2012 18 9955


-------
ENTROPY
-------

The entropy contributions are T*S = T*(S(el)+S(vib)+S(rot)+S(trans))
     S(el)   - electronic entropy
     S(vib)  - vibrational entropy
     S(rot)  - rotational entropy
     S(trans)- translational entropy
The entropies will be listed as multiplied by the temperature to get
units of energy

Electronic entropy                ...      0.00000000 Eh      0.00 kcal/mol
Vibrational entropy               ...      0.04326375 Eh     27.15 kcal/mol
Rotational entropy                ...      0.01721645 Eh     10.80 kcal/mol
Translational entropy             ...      0.02076982 Eh     13.03 kcal/mol
-----------------------------------------------------------------------
Final entropy term                ...      0.08125003 Eh     50.99 kcal/mol

In case the symmetry of your molecule has not been determined correctly
or in case you have a reason to use a different symmetry number we print 
out the resulting rotational entropy values for sn=1,12 :
 --------------------------------------------------------
|  sn= 1 | S(rot)=       0.01721645 Eh     10.80 kcal/mol|
|  sn= 2 | S(rot)=       0.01656199 Eh     10.39 kcal/mol|
|  sn= 3 | S(rot)=       0.01617916 Eh     10.15 kcal/mol|
|  sn= 4 | S(rot)=       0.01590754 Eh      9.98 kcal/mol|
|  sn= 5 | S(rot)=       0.01569685 Eh      9.85 kcal/mol|
|  sn= 6 | S(rot)=       0.01552470 Eh      9.74 kcal/mol|
|  sn= 7 | S(rot)=       0.01537916 Eh      9.65 kcal/mol|
|  sn= 8 | S(rot)=       0.01525308 Eh      9.57 kcal/mol|
|  sn= 9 | S(rot)=       0.01514187 Eh      9.50 kcal/mol|
|  sn=10 | S(rot)=       0.01504239 Eh      9.44 kcal/mol|
|  sn=11 | S(rot)=       0.01495240 Eh      9.38 kcal/mol|
|  sn=12 | S(rot)=       0.01487025 Eh      9.33 kcal/mol|
 --------------------------------------------------------


-------------------
GIBBS FREE ENERGY
-------------------

The Gibbs free energy is G = H - T*S

Total enthalpy                    ...  -1205.49362632 Eh 
Total entropy correction          ...     -0.08125003 Eh    -50.99 kcal/mol
-----------------------------------------------------------------------
Final Gibbs free energy         ...  -1205.57487635 Eh

For completeness - the Gibbs free energy minus the electronic energy
G-E(el)                           ...      0.44475746 Eh    279.09 kcal/mol


Timings for individual modules:

Sum of individual times         ...     5561.784 sec (=  92.696 min)
GTO integral calculation        ...       36.247 sec (=   0.604 min)   0.7 %
SCF iterations                  ...      194.849 sec (=   3.247 min)   3.5 %
SCF Gradient evaluation         ...       85.409 sec (=   1.423 min)   1.5 %
Geometry relaxation             ...        3.214 sec (=   0.054 min)   0.1 %
Analytical frequency calculation...      524.050 sec (=   8.734 min)   9.4 %
NEB Iterations                  ...     4718.015 sec (=  78.634 min)  84.8 %
                             ****ORCA TERMINATED NORMALLY****
TOTAL RUN TIME: 0 days 1 hours 32 minutes 12 seconds 349 msec
