38
# ORCA AIMD Force Step 0, t=0.00 fs, E_Pot=-772.15409611 Hartree, Unit is Hartree/Angstrom
 C      0.0000000000      0.0000000000      0.0000000000
 C      0.0000000000      0.0000000000      0.0000000000
 C      0.0000000000      0.0000000000      0.0000000000
 C      0.0000000000      0.0000000000      0.0000000000
 C      0.0000000000      0.0000000000      0.0000000000
 C      0.0000000000      0.0000000000      0.0000000000
 C      0.0000000000      0.0000000000      0.0000000000
 C      0.0000000000      0.0000000000      0.0000000000
 C      0.0000000000      0.0000000000      0.0000000000
 C      0.0000000000      0.0000000000      0.0000000000
 C      0.0000000000      0.0000000000      0.0000000000
 C      0.0000000000      0.0000000000      0.0000000000
 C      0.0000000000      0.0000000000      0.0000000000
 C      0.0000000000      0.0000000000      0.0000000000
 C      0.0000000000      0.0000000000      0.0000000000
 C      0.0000000000      0.0000000000      0.0000000000
 C      0.0000000000      0.0000000000      0.0000000000
 C      0.0000000000      0.0000000000      0.0000000000
 C      0.0000000000      0.0000000000      0.0000000000
 C      0.0000000000      0.0000000000      0.0000000000
 H      0.0000000000      0.0000000000      0.0000000000
 H      0.0000000000      0.0000000000      0.0000000000
 H      0.0000000000      0.0000000000      0.0000000000
 H      0.0000000000      0.0000000000      0.0000000000
 H      0.0000000000      0.0000000000      0.0000000000
 H      0.0000000000      0.0000000000      0.0000000000
 H      0.0000000000      0.0000000000      0.0000000000
 H      0.0000000000      0.0000000000      0.0000000000
 H      0.0000000000      0.0000000000      0.0000000000
 H      0.0000000000      0.0000000000      0.0000000000
 H      0.0000000000      0.0000000000      0.0000000000
 H      0.0000000000      0.0000000000      0.0000000000
 H      0.0000000000      0.0000000000      0.0000000000
 H      0.0000000000      0.0000000000      0.0000000000
 H      0.0000000000      0.0000000000      0.0000000000
 H      0.0000000000      0.0000000000      0.0000000000
 H      0.0000000000      0.0000000000      0.0000000000
 H      0.0000000000      0.0000000000      0.0000000000
38
# ORCA AIMD Force Step 1, t=0.50 fs, E_Pot=-772.15108145 Hartree, Unit is Hartree/Angstrom
 C     -0.0131909781      0.0047152729     -0.0090236420
 C      0.0140820277     -0.0123553540      0.0117397042
 C     -0.0131339514      0.0146951792     -0.0112056459
 C     -0.0005275042      0.0047068980      0.0034150542
 C      0.0138726190     -0.0076410550      0.0087836878
 C      0.0010846215      0.0025520161      0.0102307228
 C     -0.0168437490      0.0137051974     -0.0136131198
 C      0.0163653619     -0.0129098923      0.0124514353
 C     -0.0186151220      0.0070769326     -0.0113827977
 C      0.0108907488     -0.0066333480      0.0169862925
 C     -0.0164636919     -0.0014573373     -0.0101211833
 C      0.0106914360      0.0086374547      0.0204698620
 C     -0.0034495997     -0.0053033761     -0.0040595413
 C     -0.0035097367      0.0111467276      0.0221232072
 C      0.0019297419      0.0037843387     -0.0375271320
 C     -0.0055370147      0.0159775889      0.0245302922
 C      0.0046729567     -0.0142600770      0.0110126916
 C      0.0125737259     -0.0104734028      0.0337108621
 C      0.0069914721     -0.0145935530     -0.0327481470
 C     -0.0107654246     -0.0146436763      0.0156938466
 H      0.0213408982     -0.0106978697      0.0207087840
 H      0.0044863839     -0.0146959842      0.0062106553
 H     -0.0130055537     -0.0231563317     -0.0100297080
 H     -0.0216006113     -0.0043272070     -0.0216958398
 H     -0.0062671545      0.0157948194     -0.0219595862
 H     -0.0128055773      0.0050856403     -0.0046980535
 H     -0.0096498277      0.0111998320      0.0112888462
 H      0.0020396698      0.0004951032      0.0154481271
 H      0.0166959091      0.0116266132     -0.0143860846
 H     -0.0056079110      0.0096645603      0.0049711922
 H      0.0026187020     -0.0029691731      0.0189800832
 H      0.0097671368     -0.0232089711      0.0195759438
 H      0.0073858876     -0.0155717469     -0.0033149333
 H      0.0089928311     -0.0152320737     -0.0367750689
 H     -0.0224530586     -0.0054969267     -0.0340099170
 H      0.0202860632      0.0221905404     -0.0367388293
 H      0.0115919427      0.0329561760      0.0037886731
 H     -0.0052037133      0.0194610175      0.0211507464
38
# ORCA AIMD Force Step 2, t=1.00 fs, E_Pot=-772.14602470 Hartree, Unit is Hartree/Angstrom
 C     -0.0195137600      0.0060554267     -0.0131858538
 C      0.0109746094     -0.0279673059      0.0061902884
 C     -0.0115336130      0.0189857430     -0.0067463809
 C     -0.0040357362      0.0175680904      0.0022382245
 C      0.0172978611     -0.0129997661      0.0139842590
 C      0.0002608034      0.0062299744      0.0109019700
 C     -0.0183939336      0.0165111585     -0.0110736053
 C      0.0138916373     -0.0085169046      0.0204385254
 C     -0.0169604006      0.0017045540     -0.0046547431
 C      0.0086129429      0.0017858457      0.0108332666
 C     -0.0183680978     -0.0020161214      0.0003398900
 C      0.0061290812      0.0134929094      0.0216227676
 C     -0.0119459083     -0.0017600731     -0.0031192726
 C     -0.0002666649      0.0126681780      0.0242031991
 C      0.0043033638      0.0035669786     -0.0518947296
 C     -0.0109185367      0.0300729345      0.0383011323
 C      0.0130239108     -0.0143621647      0.0171013607
 C      0.0078206924     -0.0169416542      0.0610499848
 C      0.0041219409     -0.0307540233     -0.0522453881
 C     -0.0123195920     -0.0168583636      0.0170867837
 H      0.0301009287     -0.0114653877      0.0270998778
 H      0.0049131497     -0.0066701814      0.0060501023
 H     -0.0138534198     -0.0277194833     -0.0102797627
 H     -0.0249840199     -0.0074584439     -0.0261462777
 H     -0.0078560058      0.0179977105     -0.0236979115
 H     -0.0078912962     -0.0043490004     -0.0038806831
 H     -0.0066775030      0.0085597974      0.0096809718
 H      0.0012801088     -0.0001750406      0.0069838698
 H      0.0205085721      0.0123293106     -0.0155260882
 H     -0.0006513187      0.0051582802     -0.0029458956
 H      0.0061208527     -0.0036428710      0.0149407682
 H      0.0115373568     -0.0295051580      0.0252394085
 H      0.0053328881     -0.0143539405      0.0024247304
 H      0.0131288865     -0.0252032346     -0.0505625768
 H     -0.0274901647     -0.0052583760     -0.0444416904
 H      0.0245393593      0.0290535502     -0.0512838459
 H      0.0137546022      0.0419196713      0.0087266761
 H     -0.0042725454      0.0241552344      0.0262691469
38
# ORCA AIMD Force Step 3, t=1.50 fs, E_Pot=-772.14002887 Hartree, Unit is Hartree/Angstrom
 C     -0.0242133631      0.0059336711     -0.0154658744
 C      0.0081658519     -0.0439662667      0.0009708227
 C     -0.0108403635      0.0214327315     -0.0030104369
 C     -0.0092871790      0.0302532850     -0.0005119296
 C      0.0201735028     -0.0169857484      0.0172496738
 C     -0.0011281186      0.0097746225      0.0111071834
 C     -0.0200683245      0.0196661117     -0.0074746779
 C      0.0111775846     -0.0037642129      0.0289021388
 C     -0.0136985224     -0.0029017921      0.0013145950
 C      0.0060336847      0.0104374803      0.0042457733
 C     -0.0199089031     -0.0026584023      0.0109362444
 C      0.0013282915      0.0181630487      0.0224012718
 C     -0.0202745578      0.0014689568     -0.0009732007
 C      0.0040166746      0.0121795933      0.0271555494
 C      0.0067989959      0.0026912078     -0.0650119164
 C     -0.0150163156      0.0425250550      0.0474256267
 C      0.0192453478     -0.0145342965      0.0198539975
 C      0.0046530746     -0.0206331892      0.0835729988
 C      0.0018299227     -0.0442681859     -0.0714241895
 C     -0.0138411826     -0.0172145136      0.0197292158
 H      0.0370814762     -0.0108842092      0.0314651817
 H      0.0050308159      0.0019928930      0.0055221582
 H     -0.0135799749     -0.0303832479     -0.0096149221
 H     -0.0265694906     -0.0104357931     -0.0287574128
 H     -0.0090193028      0.0189077331     -0.0236151327
 H     -0.0024721614     -0.0138503267     -0.0028465594
 H     -0.0031355751      0.0052267104      0.0073939892
 H      0.0003548415     -0.0008923581     -0.0022792876
 H      0.0229504500      0.0120423876     -0.0154305325
 H      0.0044671566      0.0008946774     -0.0108214255
 H      0.0094665781     -0.0041682133      0.0098200838
 H      0.0123042832     -0.0338091211      0.0290171594
 H      0.0030257231     -0.0124233219      0.0081201926
 H      0.0160664864     -0.0334584377     -0.0598040232
 H     -0.0307112215     -0.0049935911     -0.0512981546
 H      0.0273866369      0.0334581067     -0.0612050442
 H      0.0151618522      0.0479110634      0.0139047894
 H     -0.0032398999      0.0270963865      0.0294899073
38
# ORCA AIMD Force Step 4, t=2.00 fs, E_Pot=-772.13410976 Hartree, Unit is Hartree/Angstrom
 C     -0.0271854784      0.0044848202     -0.0158390216
 C      0.0055564898     -0.0596725940     -0.0041036183
 C     -0.0110934878      0.0219797882     -0.0000054010
 C     -0.0162643119      0.0425830582     -0.0048738611
 C      0.0224455187     -0.0195276899      0.0185779424
 C     -0.0024731323      0.0126673567      0.0110518964
 C     -0.0216080126      0.0229069822     -0.0029978835
 C      0.0081050476      0.0013284097      0.0370886137
 C     -0.0087564192     -0.0066824501      0.0064196164
 C      0.0032224456      0.0192809832     -0.0026888099
 C     -0.0210881787     -0.0033879062      0.0215024711
 C     -0.0030417561      0.0223838918      0.0221860984
 C     -0.0283389228      0.0043485277      0.0021154421
 C      0.0092745966      0.0096588143      0.0309958170
 C      0.0092990829      0.0013502120     -0.0766335136
 C     -0.0178987148      0.0532273438      0.0521873612
 C      0.0232232562     -0.0147590257      0.0193270432
 C      0.0030135006     -0.0218254535      0.1013017825
 C      0.0002228520     -0.0547793258     -0.0897673675
 C     -0.0152783127     -0.0156280946      0.0236352197
 H      0.0421491099     -0.0090463884      0.0337619768
 H      0.0049528662      0.0106023097      0.0048016178
 H     -0.0121823268     -0.0310681197     -0.0080395221
 H     -0.0263149753     -0.0131718357     -0.0294540660
 H     -0.0097145834      0.0184661141     -0.0217095490
 H      0.0028301311     -0.0228736640     -0.0018095134
 H      0.0007523695      0.0014316317      0.0046400164
 H     -0.0006541732     -0.0016108903     -0.0116103699
 H      0.0239181331      0.0107451997     -0.0140488602
 H      0.0090787856     -0.0028440727     -0.0179529209
 H      0.0125892201     -0.0045458373      0.0039126080
 H      0.0120963360     -0.0360157374      0.0308302530
 H      0.0006157970     -0.0100385479      0.0136065156
 H      0.0178912787     -0.0399392435     -0.0648300539
 H     -0.0321157835     -0.0047283812     -0.0545708440
 H      0.0289100216      0.0355901752     -0.0667723268
 H      0.0157410972      0.0507551091      0.0191292064
 H     -0.0021672950      0.0281800107      0.0307101749
38
# ORCA AIMD Force Step 5, t=2.50 fs, E_Pot=-772.12902951 Hartree, Unit is Hartree/Angstrom
 C     -0.0283210553      0.0017996249     -0.0142857490
 C      0.0031562581     -0.0742852555     -0.0091883390
 C     -0.0123022152      0.0205973074      0.0023394315
 C     -0.0249810070      0.0543625600     -0.0109046598
 C      0.0241193450     -0.0205374406      0.0179510318
 C     -0.0030439152      0.0144348505      0.0111511668
 C     -0.0228242404      0.0260209475      0.0021046339
 C      0.0046057375      0.0066078528      0.0439764559
 C     -0.0021530495     -0.0096047978      0.0104868752
 C      0.0001522280      0.0281469880     -0.0096154799
 C     -0.0218224597     -0.0042117806      0.0321956513
 C     -0.0062870612      0.0260026685      0.0203552041
 C     -0.0362925583      0.0069266749      0.0057220882
 C      0.0154999122      0.0051141345      0.0356037079
 C      0.0116854648     -0.0001974358     -0.0865646217
 C     -0.0196082203      0.0620112564      0.0528890054
 C      0.0248685447     -0.0150008697      0.0154910044
 C      0.0028491724     -0.0207896502      0.1142048780
 C     -0.0005650544     -0.0619721228     -0.1067766930
 C     -0.0165918378     -0.0121091346      0.0287601461
 H      0.0451305826     -0.0059848696      0.0338877395
 H      0.0048441612      0.0183959402      0.0040996526
 H     -0.0097300223     -0.0298028994     -0.0056120515
 H     -0.0242699478     -0.0155971865     -0.0282574226
 H     -0.0099172063      0.0166703240     -0.0180369427
 H      0.0072641707     -0.0308708978     -0.0010505877
 H      0.0047405774     -0.0025393599      0.0016595090
 H     -0.0016150712     -0.0022620719     -0.0200521025
 H      0.0234268520      0.0085003858     -0.0114471694
 H      0.0125753375     -0.0059106245     -0.0237485897
 H      0.0154545905     -0.0047902381     -0.0023773933
 H      0.0109532112     -0.0360890414      0.0306547241
 H     -0.0017860214     -0.0074617880      0.0187524192
 H      0.0186786145     -0.0446120871     -0.0659283737
 H     -0.0316995669     -0.0044821129     -0.0542751776
 H      0.0291845997      0.0356096440     -0.0682226756
 H      0.0154453672      0.0503420395      0.0242257455
 H     -0.0011102947      0.0273943509      0.0299173606
38
# ORCA AIMD Force Step 6, t=3.00 fs, E_Pot=-772.12519856 Hartree, Unit is Hartree/Angstrom
 C     -0.0274258866     -0.0019444311     -0.0108429174
 C      0.0005425808     -0.0864785045     -0.0142582750
 C     -0.0144094337      0.0174826234      0.0036521206
 C     -0.0349115980      0.0650259223     -0.0183467562
 C      0.0250227325     -0.0201086107      0.0156378853
 C     -0.0022329764      0.0147137566      0.0114741485
 C     -0.0233784592      0.0285760582      0.0073054661
 C      0.0007136946      0.0119327244      0.0485284178
 C      0.0056647857     -0.0113447026      0.0134274989
 C     -0.0028975217      0.0365291157     -0.0163815699
 C     -0.0221424506     -0.0051008476      0.0417617988
 C     -0.0077490861      0.0286995955      0.0164747039
 C     -0.0432355409      0.0089382461      0.0095022781
 C      0.0222136620     -0.0014420632      0.0407969903
 C      0.0137877061     -0.0016593847     -0.0944002047
 C     -0.0201980138      0.0686969773      0.0496707068
 C      0.0241539783     -0.0152511354      0.0085933710
 C      0.0040484031     -0.0178353617      0.1217506336
 C     -0.0005752122     -0.0653721626     -0.1213218700
 C     -0.0175969096     -0.0065915357      0.0347367162
 H      0.0458305049     -0.0018990806      0.0318482650
 H      0.0048650071      0.0243689856      0.0037381776
 H     -0.0062235538     -0.0265382661     -0.0023753348
 H     -0.0204406832     -0.0175679222     -0.0251207265
 H     -0.0095973045      0.0134947407     -0.0127674909
 H      0.0101871840     -0.0372559814     -0.0007623456
 H      0.0084230495     -0.0063542341     -0.0011548893
 H     -0.0024419557     -0.0028029722     -0.0265131665
 H      0.0214755583      0.0053952097     -0.0076393298
 H      0.0140489992     -0.0078390439     -0.0272245756
 H      0.0179553617     -0.0049160363     -0.0085115549
 H      0.0090130167     -0.0339642047      0.0284945837
 H     -0.0039113490     -0.0049208673      0.0233655389
 H      0.0184550487     -0.0473380985     -0.0632416138
 H     -0.0294468573     -0.0043418235     -0.0502758116
 H      0.0282070158      0.0335525179     -0.0655579470
 H      0.0141543983      0.0466100822      0.0289440584
 H     -0.0002283509      0.0246840324      0.0270797055
38
# ORCA AIMD Force Step 7, t=3.50 fs, E_Pot=-772.12259533 Hartree, Unit is Hartree/Angstrom
 C     -0.0245674240     -0.0066159386     -0.0055154210
 C     -0.0022220167     -0.0960975365     -0.0198067968
 C     -0.0173153395      0.0126661656      0.0044449713
 C     -0.0462039623      0.0747407302     -0.0272424302
 C      0.0253489568     -0.0183097521      0.0117730019
 C      0.0005241350      0.0132354250      0.0124452600
 C     -0.0230003067      0.0302666474      0.0124373969
 C     -0.0038482775      0.0172919317      0.0500324233
 C      0.0148298839     -0.0122350128      0.0152310169
 C     -0.0060462255      0.0447056907     -0.0227588033
 C     -0.0220087392     -0.0060652016      0.0510590861
 C     -0.0070130706      0.0307103087      0.0102565951
 C     -0.0499594586      0.0106638700      0.0128951488
 C      0.0296550424     -0.0098397784      0.0465776159
 C      0.0155407975     -0.0027629211     -0.1002166161
 C     -0.0196340842      0.0731515945      0.0425669475
 C      0.0209345578     -0.0154597587     -0.0015982570
 C      0.0067757443     -0.0129043965      0.1238022249
 C      0.0003733117     -0.0649726560     -0.1335293563
 C     -0.0183799906      0.0006555413      0.0416249868
 H      0.0442686949      0.0031957553      0.0276544211
 H      0.0052370183      0.0280684714      0.0038754402
 H     -0.0018695289     -0.0215422140      0.0015285918
 H     -0.0150439478     -0.0190952445     -0.0202590010
 H     -0.0088070757      0.0091573636     -0.0061263076
 H      0.0110260653     -0.0418357224     -0.0011999521
 H      0.0115678667     -0.0096041837     -0.0035337837
 H     -0.0029469370     -0.0031624487     -0.0303508344
 H      0.0182120694      0.0015425470     -0.0028184701
 H      0.0133584013     -0.0089842020     -0.0283860866
 H      0.0201592742     -0.0049693751     -0.0140683399
 H      0.0062907763     -0.0297328468      0.0243962360
 H     -0.0057543470     -0.0028001989      0.0273965713
 H      0.0172346324     -0.0480649817     -0.0568275604
 H     -0.0253471030     -0.0042935337     -0.0426128903
 H      0.0259430830      0.0293576864     -0.0586334640
 H      0.0119101477      0.0395554583      0.0332011349
 H      0.0005055993      0.0202303429      0.0223680755
38
# ORCA AIMD Force Step 8, t=4.00 fs, E_Pot=-772.12077585 Hartree, Unit is Hartree/Angstrom
 C     -0.0196471787     -0.0120669358      0.0016592559
 C     -0.0053484904     -0.1025341352     -0.0258686255
 C     -0.0208475784      0.0064887861      0.0046947717
 C     -0.0583832495      0.0832207535     -0.0372707742
 C      0.0250950540     -0.0154141925      0.0067915398
 C      0.0054273136      0.0099737508      0.0140893270
 C     -0.0214125354      0.0307127619      0.0170983231
 C     -0.0091153635      0.0226082488      0.0479541557
 C      0.0249096775     -0.0122530274      0.0159400480
 C     -0.0091588250      0.0524174270     -0.0285735063
 C     -0.0214585897     -0.0070672399      0.0594941077
 C     -0.0039996718      0.0321048528      0.0018541502
 C     -0.0561020189      0.0120718702      0.0154642562
 C      0.0375455533     -0.0199305766      0.0527312129
 C      0.0168402409     -0.0032554270     -0.1038169207
 C     -0.0178608330      0.0750821824      0.0313818835
 C      0.0152460362     -0.0156003810     -0.0149874324
 C      0.0111007854     -0.0060009121      0.1196124797
 C      0.0022612439     -0.0605793339     -0.1426688424
 C     -0.0188430621      0.0094714767      0.0490360048
 H      0.0403458342      0.0091525093      0.0213370502
 H      0.0060887148      0.0290086796      0.0046908788
 H      0.0031610580     -0.0150591054      0.0059409912
 H     -0.0082899649     -0.0201138852     -0.0138571387
 H     -0.0076001655      0.0038839168      0.0015027399
 H      0.0095479470     -0.0444582290     -0.0024299321
 H      0.0138582946     -0.0119424261     -0.0051477100
 H     -0.0030403285     -0.0033066741     -0.0309994063
 H      0.0138350370     -0.0028644352      0.0028105426
 H      0.0103214789     -0.0093722424     -0.0270551128
 H      0.0220423229     -0.0049930526     -0.0185111471
 H      0.0029242251     -0.0234897722      0.0184734846
 H     -0.0071793185     -0.0013307478      0.0307406118
 H      0.0149458474     -0.0465307063     -0.0464878441
 H     -0.0194156906     -0.0044020409     -0.0312424488
 H      0.0222741216      0.0228424395     -0.0470588765
 H      0.0086673491      0.0292266740      0.0368225893
 H      0.0010023704      0.0141651314      0.0159295925
38
# ORCA AIMD Force Step 9, t=4.50 fs, E_Pot=-772.11895968 Hartree, Unit is Hartree/Angstrom
 C     -0.0126806638     -0.0181332296      0.0105807838
 C     -0.0088376388     -0.1056876306     -0.0324117307
 C     -0.0247478662     -0.0005999726      0.0045927357
 C     -0.0709705226      0.0903167097     -0.0480154525
 C      0.0243875359     -0.0117940916      0.0012132243
 C      0.0123466259      0.0051374520      0.0163899580
 C     -0.0184853062      0.0296792650      0.0209946345
 C     -0.0150348698      0.0277672155      0.0422333825
 C      0.0354353000     -0.0115553435      0.0156800970
 C     -0.0121677190      0.0594918459     -0.0335613339
 C     -0.0205061352     -0.0080847609      0.0668594216
 C      0.0010168214      0.0331322536     -0.0082616438
 C     -0.0616317109      0.0132051249      0.0168055299
 C      0.0456843858     -0.0313959002      0.0589444363
 C      0.0176386760     -0.0029442453     -0.1050776714
 C     -0.0147852618      0.0741246047      0.0158591026
 C      0.0071949436     -0.0156162483     -0.0313281666
 C      0.0171357123      0.0029716556      0.1085630763
 C      0.0050700873     -0.0522581194     -0.1483376219
 C     -0.0189628553      0.0194248767      0.0565218816
 H      0.0340592398      0.0158388514      0.0129760025
 H      0.0074743782      0.0271224993      0.0062184884
 H      0.0085711603     -0.0075481277      0.0106121671
 H     -0.0005852517     -0.0206224500     -0.0063220744
 H     -0.0060860699     -0.0019285849      0.0095921904
 H      0.0058358667     -0.0452226338     -0.0044066550
 H      0.0150736675     -0.0130740141     -0.0057608672
 H     -0.0026713569     -0.0032138981     -0.0283611177
 H      0.0087097782     -0.0075408963      0.0088919482
 H      0.0052257486     -0.0092453210     -0.0235393557
 H      0.0236163562     -0.0050271557     -0.0214192600
 H     -0.0009284005     -0.0154873593      0.0109624001
 H     -0.0081373905     -0.0006978037      0.0333369384
 H      0.0114993289     -0.0424443476     -0.0319594277
 H     -0.0117772714     -0.0047128612     -0.0163620784
 H      0.0170901017      0.0138216619     -0.0304510143
 H      0.0044545330      0.0158456249      0.0396849359
 H      0.0012234442      0.0068402006      0.0081237369
38
# ORCA AIMD Force Step 10, t=5.00 fs, E_Pot=-772.11625401 Hartree, Unit is Hartree/Angstrom
 C     -0.0038629346     -0.0245918011      0.0209932017
 C     -0.0125886396     -0.1058359434     -0.0392770706
 C     -0.0286655977     -0.0079591467      0.0044018173
 C     -0.0833158271      0.0959660985     -0.0588599927
 C      0.0233961917     -0.0079854059     -0.0042878289
 C      0.0208339102     -0.0009178185      0.0191704005
 C     -0.0142167147      0.0270705192      0.0239526461
 C     -0.0214792022      0.0326834825      0.0333011890
 C      0.0458163321     -0.0103915530      0.0147021368
 C     -0.0150148729      0.0657973581     -0.0375140223
 C     -0.0191908250     -0.0090867074      0.0729391875
 C      0.0074663082      0.0340558766     -0.0193513114
 C     -0.0664915575      0.0141160620      0.0166608036
 C      0.0538170628     -0.0437194793      0.0647292522
 C      0.0179275364     -0.0017272903     -0.1039015363
 C     -0.0103401132      0.0699799670     -0.0041794246
 C     -0.0028521119     -0.0154665290     -0.0499524295
 C      0.0249121974      0.0140380723      0.0903535587
 C      0.0086646506     -0.0404600057     -0.1502447515
 C     -0.0187463367      0.0299071034      0.0634375676
 H      0.0255955431      0.0230518239      0.0028189626
 H      0.0093439994      0.0227011012      0.0083607482
 H      0.0139686516      0.0003500711      0.0152175477
 H      0.0074983960     -0.0206639997      0.0017519724
 H     -0.0044209128     -0.0077351269      0.0174757935
 H      0.0002978833     -0.0444024361     -0.0069529753
 H      0.0151138651     -0.0128368635     -0.0052642362
 H     -0.0018614425     -0.0028874407     -0.0228025513
 H      0.0033299101     -0.0121322547      0.0149645357
 H     -0.0013584948     -0.0088753006     -0.0183950214
 H      0.0248880353     -0.0051035655     -0.0225122535
 H     -0.0050480636     -0.0061878100      0.0022872372
 H     -0.0086261611     -0.0009938835      0.0351495948
 H      0.0068212316     -0.0355448417     -0.0130559435
 H     -0.0027767641     -0.0052575889      0.0014006791
 H      0.0103598143      0.0022247587     -0.0086688396
 H     -0.0006059411     -0.0000602025      0.0417081602
 H      0.0011674971     -0.0012192099     -0.0005118105
38
# ORCA AIMD Force Step 11, t=5.50 fs, E_Pot=-772.11200303 Hartree, Unit is Hartree/Angstrom
 C      0.0063265861     -0.0311203853      0.0323872693
 C     -0.0163931794     -0.1035487473     -0.0461833026
 C     -0.0321706405     -0.0147859582      0.0044452803
 C     -0.0946133512      0.1001812192     -0.0689925627
 C      0.0223278978     -0.0046393719     -0.0089509986
 C      0.0302294698     -0.0077571112      0.0221523390
 C     -0.0087664419      0.0229745452      0.0259345242
 C     -0.0282228411      0.0372714687      0.0219769181
 C      0.0553659784     -0.0090847272      0.0133621578
 C     -0.0176522873      0.0712265052     -0.0402551991
 C     -0.0175648917     -0.0100413306      0.0775317500
 C      0.0146182052      0.0351004989     -0.0305580128
 C     -0.0706093366      0.0148481355      0.0149531265
 C      0.0616279315     -0.0561359548      0.0693657088
 C      0.0177396613      0.0004043497     -0.1002043918
 C     -0.0045664166      0.0625738741     -0.0285356364
 C     -0.0141836266     -0.0151431999     -0.0695366626
 C      0.0342351067      0.0269176740      0.0654904174
 C      0.0127442542     -0.0261764575     -0.1482541197
 C     -0.0182465653      0.0401078993      0.0689305287
 H      0.0154265402      0.0304877787     -0.0086344130
 H      0.0115522873      0.0163184083      0.0109080971
 H      0.0188770259      0.0078362496      0.0193673280
 H      0.0152188977     -0.0203275453      0.0095753599
 H     -0.0027932493     -0.0128783354      0.0244020731
 H     -0.0064413684     -0.0423677971     -0.0098030405
 H      0.0140141406     -0.0112294856     -0.0036961017
 H     -0.0007000393     -0.0023516848     -0.0150542764
 H     -0.0017003795     -0.0162289943      0.0204787353
 H     -0.0087040890     -0.0085055954     -0.0123045547
 H      0.0258490954     -0.0052367901     -0.0216968800
 H     -0.0091495897      0.0036875004     -0.0068945929
 H     -0.0086889529     -0.0022071242      0.0361631951
 H      0.0009377252     -0.0257685499      0.0100410043
 H      0.0069242657     -0.0060301346      0.0207653386
 H      0.0022760359     -0.0116677418      0.0177133203
 H     -0.0062429450     -0.0175044054      0.0428742966
 H      0.0008857224     -0.0092899260     -0.0092378869
38
# ORCA AIMD Force Step 12, t=6.00 fs, E_Pot=-772.10617714 Hartree, Unit is Hartree/Angstrom
 C      0.0170301661     -0.0372623778      0.0439149802
 C     -0.0199705930     -0.0995604007     -0.0527799142
 C     -0.0347998105     -0.0202008972      0.0050749047
 C     -0.1039624519      0.1030351237     -0.0774707877
 C      0.0213937855     -0.0024378012     -0.0120307954
 C      0.0398026099     -0.0149494499      0.0250141825
 C     -0.0024439493      0.0176603707      0.0270319094
 C     -0.0349688512      0.0414407865      0.0092936316
 C      0.0633757210     -0.0079895765      0.0120721479
 C     -0.0200424187      0.0757041688     -0.0416490831
 C     -0.0156885537     -0.0109221129      0.0804598331
 C      0.0217290101      0.0364153393     -0.0410527665
 C     -0.0738955816      0.0154303720      0.0117954111
 C      0.0687575538     -0.0676349014      0.0719033566
 C      0.0171392108      0.0033742699     -0.0939168818
 C      0.0022680220      0.0523143867     -0.0562180041
 C     -0.0257046797     -0.0146996599     -0.0879819785
 C      0.0445059858      0.0407203399      0.0358784664
 C      0.0167966625     -0.0110454753     -0.1423929589
 C     -0.0175717648      0.0490706677      0.0719838112
 H      0.0043991542      0.0377079838     -0.0205471881
 H      0.0138912866      0.0087037531      0.0135853918
 H      0.0227818490      0.0140384550      0.0226445397
 H      0.0217242160     -0.0197323664      0.0162278138
 H     -0.0013960198     -0.0166720504      0.0296361065
 H     -0.0136758445     -0.0395084828     -0.0126577477
 H      0.0119364382     -0.0084100134     -0.0012333754
 H      0.0006767185     -0.0016447164     -0.0060429092
 H     -0.0057349789     -0.0194142852      0.0248557049
 H     -0.0160711498     -0.0083119167     -0.0059453086
 H      0.0264703086     -0.0054206812     -0.0190773027
 H     -0.0128973009      0.0131606061     -0.0156948652
 H     -0.0084046604     -0.0042288312      0.0363788818
 H     -0.0059055647     -0.0134984270      0.0363702792
 H      0.0163077364     -0.0069558835      0.0396767020
 H     -0.0065757237     -0.0269343714      0.0468279921
 H     -0.0119894904     -0.0349371397      0.0432339946
 H      0.0004926098     -0.0164959661     -0.0171593661
38
# ORCA AIMD Force Step 13, t=6.50 fs, E_Pot=-772.09963683 Hartree, Unit is Hartree/Angstrom
 C      0.0269964551     -0.0424156333      0.0543706393
 C     -0.0230130169     -0.0946344627     -0.0587072805
 C     -0.0361303465     -0.0233877169      0.0066129531
 C     -0.1104899266      0.1046218822     -0.0833571240
 C      0.0207720726     -0.0019723568     -0.0129302677
 C      0.0488723168     -0.0221267790      0.0274474920
 C      0.0043325179      0.0115401710      0.0274342451
 C     -0.0413851038      0.0450932656     -0.0036870518
 C      0.0692208624     -0.0074275903      0.0112206561