38
# ORCA AIMD Position Step 0, t=0.00 fs, E_Pot=-772.15409611 Hartree, Unit is Angstrom
 C      1.6269670073      0.6484630029     -0.7547110034
 C      2.4204280108      1.7248600077     -0.0350350002
 C      3.3424740150      1.4765180066      0.9226650041
 C      3.7058100166      0.1444110006      1.4345880064
 C      2.6636730119     -0.9794340044      1.5916350071
 C      3.7772090169     -1.1011360049      0.5324530024
 C      3.4917700156     -1.0560510047     -0.9123430041
 C      2.5442490114     -0.2951980013     -1.5070910067
 C      1.2365770055     -0.8228770037      1.2504310056
 C      0.7054150032     -0.1075730005      0.2165620010
 C     -0.7670390034      0.0338480002     -0.0227100001
 C     -1.2017400054     -0.0153660001     -1.3409230060
 C     -2.6085380117      0.2163760010     -1.8377720082
 C     -3.3278680149      1.4182890064     -1.2769660057
 C     -3.5258580158      1.6308630073      0.0347460002
 C     -3.0601520137      0.7124240032      1.1073700050
 C     -1.6481980074      0.1836220008      1.1126420050
 C     -3.2649520146     -0.7691580034      1.0260190046
 C     -3.4206210153     -1.5472730069     -0.1698970008
 C     -3.1136080139     -1.1528630052     -1.4496690065
 H      0.9777730044      1.1548770052     -1.4899020067
 H      2.2319140100      2.7719360124     -0.3265200015
 H      3.8750460174      2.3300490104      1.3756040062
 H      4.4726090200      0.1562830007      2.2249020100
 H      2.8399020127     -1.6091470072      2.4777720111
 H      4.5812640205     -1.7988840081      0.8130590036
 H      4.1105330184     -1.7144520077     -1.5445360069
 H      2.4250120109     -0.3579190016     -2.6026160117
 H      0.5415670024     -1.3673490061      1.9102250086
 H     -0.4905050022     -0.3878630017     -2.0943550094
 H     -2.5861580116      0.2989110013     -2.9421080132
 H     -3.6938030165      2.1693960097     -1.9950810089
 H     -4.0468400181      2.5419710114      0.3696120017
 H     -3.3254510149      1.0803940048      2.1111720095
 H     -1.1497760051      0.1810140008      2.0957800094
 H     -3.5542790159     -1.2693120057      1.9645460088
 H     -3.6972630166     -2.6060830117     -0.0279380001
 H     -3.0875450138     -1.9165660086     -2.2416090100
38
# ORCA AIMD Position Step 1, t=0.50 fs, E_Pot=-772.15108145 Hartree, Unit is Angstrom
 C      1.6311314078      0.6468757648     -0.7533243203
 C      2.4204330984      1.7307507794     -0.0277870486
 C      3.3472020962      1.4749661155      0.9226262276
 C      3.7115553296      0.1385159274      1.4374377063
 C      2.6610045211     -0.9779799349      1.5893968974
 C      3.7748440704     -1.0995245792      0.5306384037
 C      3.4942014555     -1.0598774444     -0.9140941993
 C      2.5481456513     -0.2988851596     -1.5078950871
 C      1.2332217086     -0.8228481271      1.2501264784
 C      0.7075273917     -0.1156841080      0.2146475807
 C     -0.7642708157      0.0311633176     -0.0263808165
 C     -1.2000156413     -0.0193525757     -1.3402479130
 C     -2.6030770719      0.2129893898     -1.8374382854
 C     -3.3314754595      1.4164051342     -1.2790712938
 C     -3.5248084283      1.6287311561      0.0374724261
 C     -3.0572028038      0.7087549153      1.1066563340
 C     -1.6465024304      0.1811254915      1.1127392317
 C     -3.2651522708     -0.7680113342      1.0206556457
 C     -3.4207025552     -1.5424698963     -0.1659582618
 C     -3.1110453685     -1.1550048041     -1.4512619383
 H      0.9630393050      1.1430378696     -1.4957614621
 H      2.2227036556      2.7682443301     -0.3256494841
 H      3.8790357460      2.3377241761      1.3733010674
 H      4.4806654241      0.1630156623      2.2346948348
 H      2.8423070637     -1.6180337572      2.4728564392
 H      4.5848296340     -1.7764404082      0.8178180352
 H      4.1066964008     -1.7206023134     -1.5456956528
 H      2.4247551028     -0.3614295270     -2.5967821803
 H      0.5293635304     -1.3642856193      1.9107962352
 H     -0.4837878460     -0.3728375222     -2.0866020184
 H     -2.5961038538      0.2994939539     -2.9394514919
 H     -3.6908035566      2.1790189322     -2.0032960520
 H     -4.0359894124      2.5497812217      0.3518372673
 H     -3.3273277925      1.0999389252      2.1229214705
 H     -1.1423182446      0.1756766570      2.1082398892
 H     -3.5615906770     -1.2751145338      1.9775390164
 H     -3.7053379283     -2.6128387772     -0.0476287427
 H     -3.0951524362     -1.9249882980     -2.2480739382
38
# ORCA AIMD Position Step 2, t=1.00 fs, E_Pot=-772.14602470 Hartree, Unit is Angstrom
 C      1.6352263133      0.6453133065     -0.7519860948
 C      2.4205151685      1.7365777075     -0.0204703731
 C      3.3518613479      1.4734935817      0.9225261710
 C      3.7173013647      0.1326428847      1.4403078631
 C      2.6584101902     -0.9765667227      1.5872053990
 C      3.7724835687     -1.0978981916      0.5288785925
 C      3.4965423449     -1.0636313660     -0.9159209097
 C      2.5521341979     -0.3026452038     -1.5086316062
 C      1.2297625463     -0.8227805463      1.2497595359
 C      0.7097006402     -0.1238365671      0.2128248146
 C     -0.7615908894      0.0284689836     -0.0301092641
 C     -1.1982317503     -0.0232944367     -1.3394604977
 C     -2.5976315622      0.2095716623     -1.8371265446
 C     -3.3351043540      1.4145810134     -1.2810569667
 C     -3.5237476332      1.6266186541      0.0399954210
 C     -3.0542820110      0.7051708663      1.1060763101
 C     -1.6447802446      0.1785494627      1.1128967203
 C     -3.2652839183     -0.7669211982      1.0154732013
 C     -3.4207459274     -1.5377435469     -0.1621960686
 C     -3.1085399640     -1.1572279969     -1.4527700794
 H      0.9496864420      1.1304944763     -1.5002756859
 H      2.2137797508      2.7635930779     -0.3243738767
 H      3.8821808352      2.3438958235      1.3703433778
 H      4.4873198843      0.1694706877      2.2430806026
 H      2.8443054002     -1.6258972566      2.4665073998
 H      4.5875633677     -1.7536514594      0.8222740362
 H      4.1022288141     -1.7260269550     -1.5461207045
 H      2.4246308915     -0.3649100059     -2.5899384424
 H      0.5182399217     -1.3604629866      1.9104307533
 H     -0.4774317569     -0.3571730919     -2.0785203530
 H     -2.6058853634      0.2998838692     -2.9355569969
 H     -3.6871660119      2.1871361301     -2.0102411317
 H     -4.0246509021      2.5565820360      0.3338354527
 H     -3.3286199814      1.1185039394      2.1322828861
 H     -1.1363183296      0.1699779100      2.1184922832
 H     -3.5675855525     -1.2794752772      1.9881471194
 H     -3.7126628429     -2.6174521146     -0.0670850600
 H     -3.1031035874     -1.9321482400     -2.2531652265
38
# ORCA AIMD Position Step 3, t=1.50 fs, E_Pot=-772.14002887 Hartree, Unit is Angstrom
 C      1.6392231673      0.6437806554     -0.7507171603
 C      2.4206574506      1.7422640181     -0.0131042877
 C      3.3564674033      1.4721217824      0.9223889951
 C      3.7230375303      0.1268534716      1.4431963623
 C      2.6559049768     -0.9752216242      1.5850857467
 C      3.7701194785     -1.0962342669      0.5271746824
 C      3.4987875823     -1.0673029376     -0.9178120805
 C      2.5562072143     -0.3064598294     -1.5092578794
 C      1.2262032510     -0.8227034970      1.2493663497
 C      0.7119256240     -0.1319965779      0.2110574400
 C     -0.7590057536      0.0257578957     -0.0338437741
 C     -1.1964105394     -0.0271708585     -1.3385531202
 C     -2.5922398338      0.2061370447     -1.8368312057
 C     -3.3387424175      1.4128223194     -1.2829144526
 C     -3.5226610423      1.6245211772      0.0422398815
 C     -3.0514147434      0.7017437191      1.1057045836
 C     -1.6429831513      0.1758893912      1.1131480980
 C     -3.2653730617     -0.7659214269      1.0106137254
 C     -3.4207668424     -1.5331753983     -0.1587116953
 C     -3.1060966319     -1.1595481384     -1.4541879500
 H      0.9382673615      1.1171770523     -1.5030329740
 H      2.2051571531      2.7584971424     -0.3227011783
 H      3.8844295606      2.3482736673      1.3667093096
 H      4.4923598799      0.1754532434      2.2497798216
 H      2.8457958825     -1.6326042683      2.4586001039
 H      4.5897885094     -1.7310975849      0.8264865393
 H      4.0973164570     -1.7309051451     -1.5459155974
 H      2.4245898612     -0.3684092899     -2.5826249149
 H      0.5084295466     -1.3558285364      1.9090524147
 H     -0.4711046199     -0.3411391335     -2.0706135473
 H     -2.6152886628      0.3000371495     -2.9306803017
 H     -3.6827686669      2.1933472573     -2.0155557166
 H     -4.0129406727      2.5624616269      0.3159534483
 H     -3.3290590991      1.1354655054      2.1383682302
 H     -1.1320976348      0.1639242838      2.1258694934
 H     -3.5719935477     -1.2819514073      1.9954347832
 H     -3.7191067159     -2.6193426870     -0.0860138602
 H     -3.1113501414     -1.9377488164     -2.2565549571
38
# ORCA AIMD Position Step 4, t=2.00 fs, E_Pot=-772.13410976 Hartree, Unit is Angstrom
 C      1.6431036768      0.6422742668     -0.7495277577
 C      2.4208450263      1.7477326864     -0.0057029464
 C      3.3610328194      1.4708617708      0.9222347769
 C      3.7287461552      0.1212061909      1.4460937987
 C      2.6535000488     -0.9739640708      1.5830519362
 C      3.7677396019     -1.0945100542      0.5255246686
 C      3.5009320535     -1.0708817430     -0.9197518684
 C      2.5603579928     -0.3103105720     -1.5097284331
 C      1.2225544773     -0.8226420244      1.2489787639
 C      0.7141926911     -0.1401326007      0.2093061314
 C     -0.7565191294      0.0230212313     -0.0375335773
 C     -1.1945746525     -0.0309635773     -1.3375193876
 C     -2.5869372118      0.2026965108     -1.8365399955
 C     -3.3423732732      1.4111231712     -1.2846307875
 C     -3.5215328043      1.6224299117      0.0441374665
 C     -3.0486180495      0.6985355047      1.1055910438
 C     -1.6410733681      0.1731389195      1.1135092159
 C     -3.2654370877     -0.7650305771      1.0061921348
 C     -3.4207778218     -1.5288310901     -0.1556042707
 C     -3.1037191615     -1.1619719751     -1.4555035485
 H      0.9292213949      1.1030953159     -1.5037483992
 H      2.1968277641      2.7535105285     -0.3206613662
 H      3.8858013469      2.3506868301      1.3624331072
 H      4.4956867295      0.1807791908      2.2546298790
 H      2.8467039229     -1.6381048313      2.4491198059
 H      4.5918613893     -1.7093557585      0.8305304293
 H      4.0921795405     -1.7354621253     -1.5452272067
 H      2.4245718172     -0.3719810222     -2.5754303823
 H      0.5000767896     -1.3503894962      1.9066616477
 H     -0.4644602889     -0.3249816278     -2.0633806907
 H     -2.6241124980      0.2999190813     -2.9251430349
 H     -3.6775506072      2.1973776204     -2.0189985637
 H     -4.0009854215      2.5675545068      0.2985285960
 H     -3.3284516802      1.1503128844      2.1405761589
 H     -1.1298636596      0.1575202258      2.1299295381
 H     -3.5746325101     -1.2822544954      1.9987585034
 H     -3.7245874853     -2.6181147974     -0.1041123242
 H     -3.1198416138     -1.9416041460     -2.2580342800
38
# ORCA AIMD Position Step 5, t=2.50 fs, E_Pot=-772.12902951 Hartree, Unit is Angstrom
 C      1.6468590512      0.6407831904     -0.7484178575
 C      2.4210642151      1.7529079132      0.0017214563
 C      3.3655655260      1.4697144882      0.9220795798
 C      3.7344007626      0.1157575743      1.4489823525
 C      2.6512033557     -0.9728058200      1.5811074445
 C      3.7653315203     -1.0927057915      0.5239250808
 C      3.5029712775     -1.0743570091     -0.9217200292
 C      2.5645787484     -0.3141777345     -1.5099985780
 C      1.2188352458     -0.8226168040      1.2486239822
 C      0.7164913764     -0.1482130108      0.2075293042
 C     -0.7541327969      0.0202491515     -0.0411282236
 C     -1.1927441394     -0.0346569410     -1.3363576769
 C     -2.5817572945      0.1992586370     -1.8362353969
 C     -3.3459756374      1.4094665105     -1.2861877797
 C     -3.5203466481      1.6203331757      0.0456266567
 C     -3.0459022553      0.6955993148      1.1057628757
 C     -1.6390245294      0.1702906153      1.1139784996
 C     -3.2654849890     -0.7642538825      1.0022986252
 C     -3.4207876473     -1.5247603210     -0.1529697888
 C     -3.1014108073     -1.1644963977     -1.4566976858
 H      0.9228728035      1.0883360222     -1.5022629966
 H      2.1887706134      2.7491857327     -0.3182953716
 H      3.8863858635      2.3510855694      1.3576054668
 H      4.4973152407      0.1852775750      2.2575859374
 H      2.8469830249     -1.6424330993      2.4381631531
 H      4.5941318836     -1.6889741488      0.8344810178
 H      4.0870601484     -1.7399536443     -1.5442315069
 H      2.4245109334     -0.3756799574     -2.5689499215
 H      0.4932348816     -1.3442151339      1.9033385358
 H     -0.4571820623     -0.3089104376     -2.0572759464
 H     -2.6321683544      0.2995033659     -2.9193161259
 H     -3.6715103334      2.1990803504     -2.0204488619
 H     -3.9889163628      2.5720230460      0.2818852291
 H     -3.3266719178      1.1626429382      2.1385631723
 H     -1.1297136411      0.1507679065      2.1304501683
 H     -3.5753993994     -1.2802348052      1.9977413126
 H     -3.7290738280     -2.6135641780     -0.1210727232
 H     -3.1285269131     -1.9436425714     -2.2575168114
38
# ORCA AIMD Position Step 6, t=3.00 fs, E_Pot=-772.12519856 Hartree, Unit is Angstrom
 C      1.6504892457      0.6392899927     -0.7473774110
 C      2.4213024848      1.7577171877      0.0091551723
 C      3.3700671978      1.4686709886      0.9219359702
 C      3.7399637950      0.1105633995      1.4518343126
 C      2.6490205235     -0.9717509355      1.5792458029
 C      3.7628873649     -1.0908078133      0.5223738086
 C      3.5049016753     -1.0777174621     -0.9236924756
 C      2.5688587296     -0.3180397517     -1.5100296076
 C      1.2150742807     -0.8226440800      1.2483238855
 C      0.7188093893     -0.1562039898      0.2056854250
 C     -0.7518470017      0.0174316618     -0.0445751379
 C     -1.1909333958     -0.0382373463     -1.3350749363
 C     -2.5767348348      0.1958311114     -1.8358969521
 C     -3.3495219374      1.4078245823     -1.2875619484
 C     -3.5190868341      1.6182184887      0.0466528672
 C     -3.0432721989      0.6929797452      1.1062262795
 C     -1.6368227604      0.1673370909      1.1145365542
 C     -3.2655176429     -0.7635850076      0.9990004088
 C     -3.4208006521     -1.5209968301     -0.1508999721
 C     -3.0991749185     -1.1671075687     -1.4577436293
 H      0.9194237105      1.0730667115     -1.4985501135
 H      2.1809653490      2.7460288445     -0.3156423139
 H      3.8863389479      2.3495390465      1.3523720815
 H      4.4973701192      0.1887924264      2.2587183476
 H      2.8466159998     -1.6457063058      2.4259391277
 H      4.5968955644     -1.6704468680      0.8383947019
 H      4.0822095040     -1.7446473161     -1.5431193006
 H      2.4243439689     -0.3795565406     -2.5637283040
 H      0.4878695453     -1.3374353575      1.8992402911
 H     -0.4490231270     -0.2930963865     -2.0526747389
 H     -2.6392786197      0.2987711274     -2.9135977712
 H     -3.6647053622      2.1984373298     -2.0199066664
 H     -3.9768669787      2.5760396927      0.2663339760
 H     -3.3236566572      1.1721555115      2.1322236911
 H     -1.1316348871      0.1436682325      2.1274265553
 H     -3.5742644118     -1.2758707608      1.9922556401
 H     -3.7325864667     -2.6056856611     -0.1365857209
 H     -3.1373546731     -1.9439063928     -2.2550392267
38
# ORCA AIMD Position Step 7, t=3.50 fs, E_Pot=-772.12259533 Hartree, Unit is Angstrom
 C      1.6540030354      0.6377720610     -0.7463867021
 C      2.4215459769      1.7620969290      0.0165805896
 C      3.3745321365      1.4677136533      0.9218110604
 C      3.7453875195      0.1056773485      1.4546123902
 C      2.6469545281     -0.9707965261      1.5774524944
 C      3.7604079383     -1.0888111800      0.5208709306
 C      3.5067218877     -1.0809526557     -0.9256433815
 C      2.5731829243     -0.3218726119     -1.5097944835
 C      1.2113090096     -0.8227339010      1.2480946873
 C      0.7211333168     -0.1640696384      0.2037342430
 C     -0.7496612596      0.0145596399     -0.0478252104
 C     -1.1891481510     -0.0416938848     -1.3336896644
 C     -2.5719024751      0.1924203921     -1.8355031486
 C     -3.3529796605      1.4061592782     -1.2887250581
 C     -3.5177394577      1.6160747816      0.0471704338
 C     -3.0407282787      0.6907126946      1.1069667638
 C     -1.6344676446      0.1642720232      1.1151470447
 C     -3.2655283764     -0.7630077606      0.9963396137
 C     -3.4208169375     -1.5175568334     -0.1494767876
 C     -3.0970145953     -1.1697795140     -1.4586086978
 H      0.9189405208      1.0575294004     -1.4927186610
 H      2.1734048841      2.7444365307     -0.3127197149
 H      3.8858844261      2.3462417469      1.3469340233
 H      4.4960882206      0.1911910206      2.2582179423
 H      2.8456176334     -1.6481274604      2.4127647270
 H      4.6003517420     -1.6541825608      0.8422953572
 H      4.0778642544     -1.7498008915     -1.5420721797
 H      2.4240156721     -0.3836530001     -2.5601921009
 H      0.4838586942     -1.3302387798      1.8946036735
 H     -0.4398682478     -0.2776463050     -2.0498113295
 H     -2.6452811303      0.2977103725     -2.9083824324
 H     -3.6572466640      2.1955662104     -2.0174951611
 H     -3.9649600456      2.5797722165      0.2521649588
 H     -3.3194056214      1.1786606362      2.1216870604
 H     -1.1355007269      0.1362176612      2.1210852742
 H     -3.5712733470     -1.2692705189      1.9824293147
 H     -3.7352061508     -2.5946835921     -0.1503511582
 H     -3.1462804835     -1.9425577912     -2.2507666769
38
# ORCA AIMD Position Step 8, t=4.00 fs, E_Pot=-772.12077585 Hartree, Unit is Angstrom
 C      1.6574175657      0.6362023784     -0.7454162274
 C      2.4217797367      1.7659933224      0.0239726130
 C      3.3789473058      1.4668161667      0.9217092966
 C      3.7506125382      0.1011522016      1.4572690457
 C      2.6450067850     -0.9699329928      1.5757056407
 C      3.7579062152     -1.0867215775      0.5194211487
 C      3.5084342520     -1.0840544581     -0.9275457834
 C      2.5775298888     -0.3256494135     -1.5092821675
 C      1.2075869607     -0.8228918352      1.2479468187
 C      0.7234476318     -0.1717696051      0.2016382459
 C     -0.7475742078      0.0116251430     -0.0508278397
 C     -1.1873832988     -0.0450168427     -1.3322339923
 C     -2.5672954529      0.1890336130     -1.8350345195
 C     -3.3563096111      1.4044230198     -1.2896441488
 C     -3.5162930421      1.6138941325      0.0471428129
 C     -3.0382663690      0.6888244123      1.1079485669
 C     -1.6319736319      0.1610909206      1.1157549554
 C     -3.2655020029     -0.7624955303      0.9943317891
 C     -3.4208313379     -1.5144387723     -0.1487725664
 C     -3.0949332896     -1.1724749890     -1.4592539235
 H      0.9213496870      1.0420434811     -1.4850180933
 H      2.1661104006      2.7446650518     -0.3095138041
 H      3.8853029337      2.3415010898      1.3415407908
 H      4.4938087218      0.1923642391      2.2563865613
 H      2.8440327314     -1.6499738749      2.3990556075
 H      4.6045646378     -1.6404911415      0.8461570852
 H      4.0742319688     -1.7556353618     -1.5412457029
 H      2.4234911730     -0.3879980272     -2.5586063693
 H      0.4809990471     -1.3228681747      1.8897355161
 H     -0.4297461426     -0.2626273386     -2.0487766356
 H     -2.6500252205      0.2963136154     -2.9040348720
 H     -3.6493005187      2.1907200069     -2.0134625048
 H     -3.9533088188      2.5833593741      0.2396451023
 H     -3.3139834634      1.1820860936      2.1073242392
 H     -1.1410647162      0.1284104391      2.1118907113
 H     -3.5665540096     -1.2606818817      1.9686658196
 H     -3.7370729486     -2.5809810173     -0.1620834445
 H     -3.1552638341     -1.9398714770     -2.2449868169
38
# ORCA AIMD Position Step 9, t=4.50 fs, E_Pot=-772.11895968 Hartree, Unit is Angstrom
 C      1.6607598779      0.6345499912     -0.7444264881
 C      2.4219865602      1.7693672090      0.0312998402
 C      3.3832941279      1.4659449390      0.9216322585
 C      3.7555714824      0.0970368902      1.4597487440
 C      2.6431765277     -0.9691451040      1.5739778260
 C      3.7554081419     -1.0845553315      0.5180336020
 C      3.5100468983     -1.0870199844     -0.9293741544
 C      2.5818722420     -0.3293415195     -1.5085010638
 C      1.2039628226     -0.8231187315      1.2478849681
 C      0.7257358382     -0.1792621540      0.1993633631
 C     -0.7455832084      0.0086211328     -0.0535350492
 C     -1.1856219606     -0.0481981901     -1.3307529104
 C     -2.5629484368      0.1856777283     -1.8344760385
 C     -3.3594681367      1.4025591168     -1.2902831802
 C     -3.5147389897      1.6116727938      0.0465445991
 C     -3.0358768274      0.6873288350      1.1091130303
 C     -1.6293697836      0.1577908499      1.1162868926
 C     -3.2654143730     -0.7620109079      0.9929600404
 C     -3.4208334671     -1.5116208852     -0.1488447119
 C     -3.0929337282     -1.1751466243     -1.4596365247
 H      0.9264249717      1.0269946993     -1.4758403272
 H      2.1591381775      2.7467947875     -0.3059673128
 H      3.8849222737      2.3357251269      1.3364800332
 H      4.4909627457      0.1922331307      2.2536289783
 H      2.8419337688     -1.6515853702      2.3853014761
 H      4.6094465753     -1.6295666381      0.8499001448
 H      4.0714688191     -1.7623125687     -1.5407475366
 H      2.4227621774     -0.3926049422     -2.5590331852
 H      0.4790150940     -1.3156079818      1.8850004151
 H     -0.4188425610     -0.2480647765     -2.0495020703
 H     -2.6533760998      0.2945754194     -2.9008535290
 H     -3.6410798573      2.1842855466     -2.0081784519
 H     -3.9420056751      2.5868969411      0.2290064989
 H     -3.3075262856      1.1825016101      2.0897682439
 H     -1.1479577917      0.1202334203      2.1005549463
 H     -3.5603273152     -1.2505082199      1.9516780403
 H     -3.7383919306     -2.5652220401     -0.1715281323
 H     -3.1642755247     -1.9362298592     -2.2381038029
38
# ORCA AIMD Position Step 10, t=5.00 fs, E_Pot=-772.11625401 Hartree, Unit is Angstrom
 C      1.6640684689      0.6327802045     -0.7433679709
 C      2.4221470526      1.7721967176      0.0385278004
 C      3.3875517336      1.4650610444      0.9215796251
 C      3.7601938386      0.0933735319      1.4619913077
 C      2.6414605743     -0.9684135397      1.5722380932
 C      3.7529510349     -1.0823375601      0.5167211807
 C      3.5115753281     -1.0898543436     -0.9311068424
 C      2.5861786957     -0.3329207784     -1.5074795213
 C      1.2004943924     -0.8234115552      1.2479086014
 C      0.7279818042     -0.1865084313      0.1968796207
 C     -0.7436834589      0.0055403936     -0.0559040391
 C     -1.1838360915     -0.0512317205     -1.3293012896
 C     -2.5588932814      0.1823583004     -1.8338192182
 C     -3.3624096362      1.4005026719     -1.2906052336
 C     -3.5130713125      1.6094113870      0.0453626360
 C     -3.0335428177      0.6862244254      1.1103771509
 C     -1.6266983990      0.1543694865      1.1166524287
 C     -3.2652316540     -0.7615047464      0.9921700022
 C     -3.4208077632     -1.5090598052     -0.1497326261
 C     -3.0910168456     -1.1777402710     -1.4597126999
 H      0.9337845934      1.0128209774     -1.4657143514
 H      2.1525802875      2.7507230530     -0.3019755723
 H      3.8850986457      2.3293928882      1.3320595888
 H      4.4880478447      0.1907505264      2.2504278499
 H      2.8394137951     -1.6533404563      2.3720273807
 H      4.6147630765     -1.6214852160      0.8533949736
 H      4.0696627747     -1.7699175069     -1.5406211578
 H      2.4218504557     -0.3974718110     -2.5613213034
 H      0.4775800035     -1.3087633794      1.8807965126
 H     -0.4074795918     -0.2339508466     -2.0517763537
 H     -2.6552169327      0.2924894162     -2.8990402191
 H     -3.6328315571      2.1767679718     -2.0021198925
 H     -3.9311136882      2.5904268738      0.2204359333
 H     -3.3002468327      1.1801429002      2.0699311418
 H     -1.1556960267      0.1116599167      2.0880260853
 H     -3.5529148147     -1.2393202742      1.9325140168
 H     -3.7394334751     -2.5482562033     -0.1784763578
 H     -3.1733040466     -1.9321012676     -2.2306149229
38
# ORCA AIMD Position Step 11, t=5.50 fs, E_Pot=-772.11200303 Hartree, Unit is Angstrom
 C      1.6673940410      0.6308548124     -0.7421818424
 C      2.4222402072      1.7744771952      0.0456233608
 C      3.3917009572      1.4641231949      0.9215505777
 C      3.7644116490      0.0901953258      1.4639362574
 C      2.6398533957     -0.9677174167      1.5704546997
 C      3.7505800595     -1.0800992189      0.5154989685
 C      3.5130432708     -1.0925726498     -0.9327278904
 C      2.5904168303     -0.3363617368     -1.5062631455
 C      1.1972377253     -0.8237648765      1.2480133157
 C      0.7301711833     -0.1934767556      0.1941610020
 C     -0.7418672473      0.0023741292     -0.0578994911
 C     -1.1819885588     -0.0541131043     -1.3279392645
 C     -2.5551567508      0.1790781209     -1.8330632383
 C     -3.3650893119      1.3981821784     -1.2905752325
 C     -3.5112858383      1.6071143680      0.0435959431
 C     -3.0312386838      0.6854918943      1.1116329001
 C     -1.6240118371      0.1508235981      1.1167476309
 C     -3.2649098985     -0.7609155807      0.9918674535
 C     -3.4207341385     -1.5066915277     -0.1514565923
 C     -3.0891808600     -1.1801994938     -1.4594410803
 H      0.9429055362      0.9999932791     -1.4552868027
 H      2.1465586194      2.7561834439     -0.2973901610
 H      3.8861918989      2.3230104415      1.3285847272
 H      4.4855903675      0.1878974585      2.2473044908
 H      2.8365751792     -1.6556224070      2.3597445101
 H      4.6201604907     -1.6162184894      0.8564747977
 H      4.0688257182     -1.7784509997     -1.5408380881
 H      2.4208062932     -0.4025839966     -2.5651292480
 H      0.4763464230     -1.3026342977      1.8775241235
 H     -0.3960743556     -0.2202551727     -2.0552816429
 H     -2.6554490432      0.2900450745     -2.8986803532
 H     -3.6248186029      2.1687583157     -1.9958415616
 H     -3.9206608527      2.5939324839      0.2140684208
 H     -3.2924365642      1.1754290222      2.0490098597
 H     -1.1637054933      0.1026430587      2.0754442545
 H     -3.5447382107     -1.2278574063      1.9125609102
 H     -3.7405267337     -2.5310983597     -0.1827732550
 H     -3.1823603822     -1.9280048415     -2.2230730688
38
# ORCA AIMD Position Step 12, t=6.00 fs, E_Pot=-772.10617714 Hartree, Unit is Angstrom
 C      1.6707985899      0.6287326493     -0.7408017934
 C      2.4222444190      1.7762183345      0.0525591140
 C      3.3957283220      1.4630915492      0.9215455983
 C      3.7681650092      0.0875260083      1.4655275084
 C      2.6383476964     -0.9670375685      1.5685983771
 C      3.7483438850     -1.0778738181      0.5143823834
 C      3.5144824874     -1.0952006786     -0.9342278030
 C      2.5945560043     -0.3396433683     -1.5049097158
 C      1.1942423724     -0.8241728669      1.2481929272
 C      0.7322925375     -0.2001458179      0.1911848246
 C     -0.7401235367     -0.0008894311     -0.0594949405
 C     -1.1800360693     -0.0568396710     -1.3267272496
 C     -2.5517590152      0.1758360514     -1.8322149583
 C     -3.3674655616      1.3955220532     -1.2901632464
 C     -3.5093790602      1.6047890619      0.0412545507
 C     -3.0289290642      0.6850938568      1.1127483526
 C     -1.6213676146      0.1471473055      1.1164615709
 C     -3.2643955392     -0.7601705129      0.9919211542
 C     -3.4205894288     -1.5044357911     -0.1540190159
 C     -3.0874208627     -1.1824707457     -1.4587866603
 H      0.9531588287      0.9889936354     -1.4452867220
 H      2.1412142068      2.7627860222     -0.2920288256
 H      3.8885370455      2.3170568752      1.3263332195
 H      4.4840978323      0.1836740411      2.2447673000
 H      2.8335157629     -1.6587788321      2.3488980188
 H      4.6252073732     -1.6136589749      0.8589529511
 H      4.0688961571     -1.7878339260     -1.5413001760
 H      2.4197023741     -0.4079182385     -2.5699745679
 H      0.4749849983     -1.2974875987      1.8755506294
 H     -0.3850881679     -0.2069351122     -2.0596400454
 H     -2.6539898523      0.2872249975     -2.8997379178
 H     -3.6172989592      2.1608839789     -1.9899317694
 H     -3.9106387243      2.5973399844      0.2099867925
 H     -3.2844610842      1.1689634246      2.0284688573
 H     -1.1713674709      0.0931111593      2.0640564473
 H     -3.5363038041     -1.2170070861      1.8935038569
 H     -3.7420437335     -2.5148600050     -0.1843168572
 H     -3.1914789556     -1.9244629484     -2.2160365706
38
# ORCA AIMD Position Step 13, t=6.50 fs, E_Pot=-772.09963683 Hartree, Unit is Angstrom
 C      1.6743520705      0.6263708541     -0.7391574761
 C      2.4221386806      1.7774391791      0.0593163763
 C      3.3996291682      1.4619319162      0.9215684961
 C      3.7714063971      0.0853811028      1.4667177303
 C      2.6369354819     -0.9663601451      1.5666457269
 C      3.7462907850     -1.0756947497      0.5133855268
 C      3.5159315379     -1.0977739582     -0.9356030766
 C      2.5985695384     -0.3427498243     -1.5034831782
 C      1.1915476693     -0.8246314764      1.2484419519
 C      0.7343378178     -0.2065057821      0.1879310239