60
# ORCA AIMD Force Step 0, t=0.00 fs, E_Pot=-1207.43238916 Hartree, Unit is Hartree/Angstrom
 C      0.0000000000      0.0000000000      0.0000000000
 C      0.0000000000      0.0000000000      0.0000000000
 O      0.0000000000      0.0000000000      0.0000000000
 C      0.0000000000      0.0000000000      0.0000000000
 C      0.0000000000      0.0000000000      0.0000000000
 C      0.0000000000      0.0000000000      0.0000000000
 C      0.0000000000      0.0000000000      0.0000000000
 O      0.0000000000      0.0000000000      0.0000000000
 B      0.0000000000      0.0000000000      0.0000000000
 C      0.0000000000      0.0000000000      0.0000000000
 C      0.0000000000      0.0000000000      0.0000000000
 C      0.0000000000      0.0000000000      0.0000000000
 H      0.0000000000      0.0000000000      0.0000000000
 C      0.0000000000      0.0000000000      0.0000000000
 H      0.0000000000      0.0000000000      0.0000000000
 C      0.0000000000      0.0000000000      0.0000000000
 B      0.0000000000      0.0000000000      0.0000000000
 O      0.0000000000      0.0000000000      0.0000000000
 C      0.0000000000      0.0000000000      0.0000000000
 C      0.0000000000      0.0000000000      0.0000000000
 C      0.0000000000      0.0000000000      0.0000000000
 C      0.0000000000      0.0000000000      0.0000000000
 C      0.0000000000      0.0000000000      0.0000000000
 C      0.0000000000      0.0000000000      0.0000000000
 O      0.0000000000      0.0000000000      0.0000000000
 C      0.0000000000      0.0000000000      0.0000000000
 C      0.0000000000      0.0000000000      0.0000000000
 H      0.0000000000      0.0000000000      0.0000000000
 C      0.0000000000      0.0000000000      0.0000000000
 C      0.0000000000      0.0000000000      0.0000000000
 C      0.0000000000      0.0000000000      0.0000000000
 H      0.0000000000      0.0000000000      0.0000000000
 H      0.0000000000      0.0000000000      0.0000000000
 H      0.0000000000      0.0000000000      0.0000000000
 H      0.0000000000      0.0000000000      0.0000000000
 H      0.0000000000      0.0000000000      0.0000000000
 H      0.0000000000      0.0000000000      0.0000000000
 H      0.0000000000      0.0000000000      0.0000000000
 H      0.0000000000      0.0000000000      0.0000000000
 H      0.0000000000      0.0000000000      0.0000000000
 H      0.0000000000      0.0000000000      0.0000000000
 H      0.0000000000      0.0000000000      0.0000000000
 H      0.0000000000      0.0000000000      0.0000000000
 H      0.0000000000      0.0000000000      0.0000000000
 H      0.0000000000      0.0000000000      0.0000000000
 H      0.0000000000      0.0000000000      0.0000000000
 H      0.0000000000      0.0000000000      0.0000000000
 H      0.0000000000      0.0000000000      0.0000000000
 H      0.0000000000      0.0000000000      0.0000000000
 H      0.0000000000      0.0000000000      0.0000000000
 H      0.0000000000      0.0000000000      0.0000000000
 H      0.0000000000      0.0000000000      0.0000000000
 H      0.0000000000      0.0000000000      0.0000000000
 H      0.0000000000      0.0000000000      0.0000000000
 H      0.0000000000      0.0000000000      0.0000000000
 H      0.0000000000      0.0000000000      0.0000000000
 H      0.0000000000      0.0000000000      0.0000000000
 H      0.0000000000      0.0000000000      0.0000000000
 H      0.0000000000      0.0000000000      0.0000000000
 H      0.0000000000      0.0000000000      0.0000000000
60
# ORCA AIMD Force Step 1, t=0.50 fs, E_Pot=-1207.42911572 Hartree, Unit is Hartree/Angstrom
 C     -0.0103025515      0.0212109025      0.0140594576
 C     -0.0003231060     -0.0123244800     -0.0086706213
 O      0.0093489783     -0.0081867144      0.0013627271
 C     -0.0253252094      0.0062099113     -0.0274717398
 C      0.0016751749     -0.0010123342      0.0069167705
 C     -0.0066082014     -0.0115562029      0.0013887330
 C     -0.0198632842      0.0225576444     -0.0057663506
 O     -0.0236933858      0.0081298420     -0.0149220969
 B      0.0162622275     -0.0108189799     -0.0048122840
 C      0.0011432377      0.0168353980      0.0144825774
 C     -0.0032048214      0.0104292243      0.0079288130
 C      0.0160302371     -0.0068882776     -0.0083654346
 H     -0.0356100185     -0.0023303508     -0.0167058225
 C      0.0213836653      0.0062502183      0.0157790195
 H     -0.0078299107     -0.0105987603     -0.0295495708
 C     -0.0117072788     -0.0085726078     -0.0220636603
 B     -0.0068334960     -0.0017116633      0.0049228725
 O     -0.0184688234     -0.0110389171      0.0070576980
 C      0.0028825808     -0.0147507009     -0.0175475233
 C     -0.0021642671     -0.0060153936      0.0097163093
 C      0.0184642304     -0.0093817371      0.0037176399
 C      0.0107889091      0.0071170679     -0.0031552623
 C     -0.0031416465     -0.0049176981     -0.0121250162
 C     -0.0105581101     -0.0132017904     -0.0137750316
 O      0.0101280660      0.0123518775      0.0192473563
 C     -0.0006875682     -0.0003239295      0.0159477686
 C      0.0098443611      0.0046839099     -0.0034430699
 H      0.0081606896      0.0071582884      0.0095149331
 C      0.0118862736      0.0050387529     -0.0070177072
 C     -0.0033860567     -0.0124167640      0.0024800574
 C      0.0076411343      0.0106586142     -0.0141443655
 H     -0.0204810666     -0.0240259196     -0.0038534384
 H      0.0148253586     -0.0027379592      0.0075239585
 H      0.0055665545     -0.0096101725     -0.0043181960
 H     -0.0051695555     -0.0121193825      0.0021219549
 H      0.0319756304     -0.0046152908     -0.0001421441
 H      0.0059092646     -0.0025173613      0.0111029524
 H     -0.0024437862      0.0211453799      0.0142172992
 H     -0.0017470168      0.0110447000      0.0181397299
 H      0.0045086001      0.0113288365     -0.0176349465
 H     -0.0034055846      0.0048909464     -0.0038453916
 H     -0.0011247488      0.0082778645      0.0179611408
 H     -0.0067389801      0.0009175740     -0.0028871482
 H      0.0165644229     -0.0365937860      0.0008676108
 H     -0.0165620050      0.0076167030      0.0032066898
 H     -0.0067395849     -0.0037804858     -0.0050611582
 H      0.0085294255      0.0022972029     -0.0102232634
 H     -0.0008563294      0.0004217865     -0.0000718715
 H     -0.0335008727     -0.0074005517     -0.0076568127
 H     -0.0063019351      0.0247467743      0.0141929407
 H      0.0139488611      0.0097425275     -0.0196116977
 H      0.0052528568      0.0005273479     -0.0075152840
 H      0.0177829259      0.0072090520      0.0121641210
 H     -0.0086408138     -0.0151885079      0.0078248727
 H      0.0061497294     -0.0003499274     -0.0106542379
 H     -0.0151679748      0.0192098220      0.0031100358
 H      0.0252442307      0.0052042039      0.0141828105
 H      0.0222571509      0.0100652727     -0.0005098968
 H      0.0030155945     -0.0027326603      0.0300384855
 H     -0.0078311128     -0.0165270845      0.0123674230
60
# ORCA AIMD Force Step 2, t=1.00 fs, E_Pot=-1207.42078019 Hartree, Unit is Hartree/Angstrom
 C     -0.0203688502      0.0408693736      0.0363414209
 C     -0.0019722119     -0.0280240156     -0.0219408548
 O      0.0007338426     -0.0024310424      0.0022452213
 C     -0.0439409437      0.0184570590     -0.0591220737
 C      0.0067188874     -0.0047011184      0.0101284164
 C     -0.0158900756     -0.0161926984      0.0007718373
 C     -0.0437278981      0.0367626797     -0.0086214517
 O     -0.0312581642      0.0136411137     -0.0140611200
 B      0.0310762975     -0.0180789377     -0.0038209083
 C     -0.0037371206      0.0246840071      0.0198266310
 C     -0.0052834775      0.0142976897      0.0140227613
 C      0.0230454511     -0.0073644852     -0.0075027970
 H     -0.0477554001     -0.0018547680     -0.0216491583
 C      0.0354045117      0.0087175001      0.0273049201
 H     -0.0108113206     -0.0131480605     -0.0400124226
 C     -0.0140435504     -0.0049602502     -0.0150360130
 B     -0.0089560472     -0.0029710630      0.0021014046
 O     -0.0183303960     -0.0095351988      0.0149054736
 C      0.0058521900     -0.0295510075     -0.0297943014
 C     -0.0038402602     -0.0186417964      0.0158600452
 C      0.0308086646     -0.0131652362      0.0048886579
 C      0.0170001803      0.0137226128     -0.0036221508
 C     -0.0016842396     -0.0149144819     -0.0210945608
 C     -0.0170197680     -0.0192018825     -0.0285000358
 O      0.0093467731      0.0125522622      0.0227526916
 C     -0.0066894784     -0.0087724637      0.0058026265
 C      0.0178768070      0.0099642083      0.0014237416
 H      0.0044021808      0.0049591644      0.0052210665
 C      0.0165915436      0.0091274398     -0.0114530026
 C     -0.0116839710     -0.0215508650     -0.0045097519
 C      0.0142147092      0.0186286552     -0.0109105691
 H     -0.0253719835     -0.0311099286     -0.0024266038
 H      0.0095330574     -0.0031308130      0.0105032437
 H      0.0194776139     -0.0332025386     -0.0242746842
 H     -0.0028219611     -0.0055781914     -0.0003172764
 H      0.0416504714     -0.0052967645     -0.0019881193
 H      0.0138053278     -0.0123937360      0.0431421226
 H     -0.0009449909      0.0257812616      0.0164024162
 H     -0.0049974528      0.0119614289      0.0188983367
 H     -0.0003357489      0.0112018693     -0.0201799202
 H      0.0131452340      0.0086027648     -0.0014169063
 H     -0.0001105353      0.0096438748      0.0165480055
 H      0.0061710660      0.0025474281      0.0017040568
 H      0.0263475259     -0.0506921362     -0.0003612645
 H     -0.0141661298      0.0047761955      0.0008324476
 H      0.0046519619     -0.0015753597     -0.0011089353
 H      0.0037175572      0.0013532209     -0.0054824642
 H     -0.0078243401      0.0186014186     -0.0101554537
 H     -0.0458699045     -0.0090011182     -0.0084291007
 H     -0.0098004427      0.0320521060      0.0163719515
 H      0.0174844640      0.0129410743     -0.0220973175
 H      0.0013573517      0.0061929562      0.0025299858
 H      0.0195717192      0.0092856597      0.0112428436
 H     -0.0096464539     -0.0132647091      0.0079971345
 H      0.0066755511      0.0013623237     -0.0020789613
 H     -0.0184772194      0.0208778801      0.0049941148
 H      0.0321163978      0.0042457991      0.0171324408
 H      0.0239492120      0.0110150077      0.0016075556
 H      0.0029753943     -0.0027341983      0.0367514815
 H     -0.0075534497     -0.0166564536      0.0116468017
60
# ORCA AIMD Force Step 3, t=1.50 fs, E_Pot=-1207.40896203 Hartree, Unit is Hartree/Angstrom
 C     -0.0304240655      0.0592967558      0.0588141161
 C     -0.0031209320     -0.0441031053     -0.0353377853
 O     -0.0081923465      0.0039214577      0.0033759374
 C     -0.0591394115      0.0315400133     -0.0885873673
 C      0.0118074193     -0.0084163756      0.0132331188
 C     -0.0242186202     -0.0192838544     -0.0001685200
 C     -0.0662160202      0.0471780680     -0.0104048042
 O     -0.0381708309      0.0187394692     -0.0132258696
 B      0.0452210275     -0.0247916393     -0.0025438024
 C     -0.0084688131      0.0324073241      0.0251032209
 C     -0.0083040278      0.0183567102      0.0200591663
 C      0.0266728736     -0.0079558532     -0.0082726076
 H     -0.0562876593     -0.0010426091     -0.0246760649
 C      0.0482272925      0.0099260926      0.0356607542
 H     -0.0129420407     -0.0144272100     -0.0473487900
 C     -0.0160401800     -0.0012296166     -0.0075550658
 B     -0.0109468982     -0.0042107821     -0.0008805911
 O     -0.0179773019     -0.0079253768      0.0225469773
 C      0.0087750800     -0.0444407785     -0.0418786525
 C     -0.0051338600     -0.0306777937      0.0212523245
 C      0.0406472563     -0.0154162503      0.0050206043
 C      0.0230567507      0.0201811720     -0.0039959866
 C      0.0004785844     -0.0250686413     -0.0287054866
 C     -0.0220457284     -0.0231730922     -0.0420476177
 O      0.0084857717      0.0126629678      0.0260561954
 C     -0.0112417930     -0.0165375214     -0.0048956865
 C      0.0261664903      0.0156269654      0.0068539562
 H      0.0001640829      0.0023764307      0.0004721640
 C      0.0213068911      0.0125607612     -0.0134160408
 C     -0.0201729798     -0.0312225514     -0.0104137096
 C      0.0189688105      0.0242612572     -0.0082849888
 H     -0.0283999712     -0.0359427519     -0.0002547565
 H      0.0036940872     -0.0033635258      0.0130705522
 H      0.0334259648     -0.0562394764     -0.0442084026
 H     -0.0001371026      0.0015343256     -0.0027688157
 H      0.0480475323     -0.0052850040     -0.0041132910
 H      0.0209873077     -0.0224645855      0.0743678548
 H      0.0009427162      0.0288097836      0.0174384355
 H     -0.0081153172      0.0123142259      0.0185068570
 H     -0.0057757564      0.0102460226     -0.0215799754
 H      0.0292317038      0.0121396193      0.0013098069
 H      0.0009801697      0.0103730735      0.0139432167
 H      0.0191632505      0.0040319355      0.0065600762
 H      0.0346293380     -0.0602594529     -0.0017282602
 H     -0.0107819942      0.0015194083     -0.0017237581
 H      0.0162559775      0.0009031659      0.0030742514
 H     -0.0015751673      0.0001752223     -0.0001396936
 H     -0.0149729031      0.0364547049     -0.0200707771
 H     -0.0549135903     -0.0094433018     -0.0082480792
 H     -0.0128890541      0.0371626376      0.0169942409
 H      0.0198271388      0.0154832470     -0.0229587855
 H     -0.0026319911      0.0116220865      0.0127580982
 H      0.0200578596      0.0107725095      0.0092928666
 H     -0.0099956069     -0.0102860355      0.0076521325
 H      0.0068993474      0.0030333393      0.0068555264
 H     -0.0205820022      0.0210795773      0.0067964057
 H      0.0366751270      0.0027516876      0.0186516360
 H      0.0239172143      0.0111922419      0.0038388762
 H      0.0026423857     -0.0025695016      0.0407184725
 H     -0.0067228714     -0.0156391819      0.0100045390
60
# ORCA AIMD Force Step 4, t=2.00 fs, E_Pot=-1207.39608523 Hartree, Unit is Hartree/Angstrom
 C     -0.0384766856      0.0733132997      0.0776302608
 C     -0.0037323909     -0.0603854883     -0.0486706691
 O     -0.0173496436      0.0108010833      0.0047741140
 C     -0.0702496419      0.0438002235     -0.1104181724
 C      0.0168961949     -0.0122038278      0.0162017660
 C     -0.0301357729     -0.0208266281     -0.0008806159
 C     -0.0857354717      0.0541585641     -0.0106656442
 O     -0.0444209233      0.0234242440     -0.0124203230
 B      0.0585762748     -0.0309142671     -0.0009796800
 C     -0.0129766579      0.0399220348      0.0302627842
 C     -0.0120251117      0.0224129858      0.0258868443
 C      0.0269533454     -0.0085827085     -0.0105776370
 H     -0.0612025408      0.0000526623     -0.0258445559
 C      0.0597057338      0.0099049578      0.0407900973
 H     -0.0141695301     -0.0144738105     -0.0514859449
 C     -0.0176854902      0.0025569175      0.0001838681
 B     -0.0127816764     -0.0053970588     -0.0039682680
 O     -0.0174232805     -0.0062541753      0.0299212545
 C      0.0116157194     -0.0592446369     -0.0537030673
 C     -0.0063033215     -0.0398704557      0.0253191879
 C      0.0479163214     -0.0158843850      0.0041525070
 C      0.0289433004      0.0264158596     -0.0042402754
 C      0.0029237014     -0.0349210444     -0.0340421022
 C     -0.0258073999     -0.0249862798     -0.0535932070
 O      0.0075446237      0.0126829008      0.0291348661
 C     -0.0142485839     -0.0235182911     -0.0158786558
 C      0.0343339255      0.0214045169      0.0124412401
 H     -0.0041919607     -0.0003388172     -0.0043716940
 C      0.0259609206      0.0153330697     -0.0128262277
 C     -0.0287384200     -0.0412934763     -0.0152072203
 C      0.0218062537      0.0273967645     -0.0062662786
 H     -0.0294891477     -0.0383965971      0.0025934779
 H     -0.0023418212     -0.0034836277      0.0152034208
 H      0.0452502099     -0.0750222140     -0.0604846697
 H      0.0026904799      0.0087195644     -0.0051346309
 H      0.0511662679     -0.0046100538     -0.0063724145
 H      0.0267735337     -0.0309532096      0.0993305510
 H      0.0031852514      0.0300927811      0.0171986558
 H     -0.0109983040      0.0120816783      0.0169675816
 H     -0.0116154583      0.0085158543     -0.0218541169
 H      0.0431446431      0.0154517437      0.0038162776
 H      0.0021286745      0.0104695128      0.0102816506
 H      0.0308154971      0.0053216490      0.0110343916
 H      0.0412754451     -0.0655692620     -0.0031895997
 H     -0.0066942801     -0.0019753705     -0.0043564253
 H      0.0270610145      0.0034186522      0.0070116788
 H     -0.0070087537     -0.0011209840      0.0054481171
 H     -0.0213356585      0.0517649886     -0.0284429442
 H     -0.0605660412     -0.0088270300     -0.0071672115
 H     -0.0155087284      0.0399645101      0.0160189694
 H      0.0209105211      0.0172942044     -0.0221585644
 H     -0.0062419649      0.0165400116      0.0221433536
 H      0.0192092393      0.0116271182      0.0063677770
 H     -0.0097169523     -0.0063829530      0.0068201451
 H      0.0070237732      0.0045564525      0.0154136675
 H     -0.0214000038      0.0197487644      0.0084302501
 H      0.0388194501      0.0007947522      0.0187355251
 H      0.0221261760      0.0105917698      0.0061091906
 H      0.0020567317     -0.0022451722      0.0418325867
 H     -0.0053953097     -0.0135593453      0.0075158741
60
# ORCA AIMD Force Step 5, t=2.50 fs, E_Pot=-1207.38480571 Hartree, Unit is Hartree/Angstrom
 C     -0.0422911395      0.0797069795      0.0886113081
 C     -0.0037823841     -0.0767001479     -0.0617876919
 O     -0.0266651371      0.0181250918      0.0064689503
 C     -0.0768637359      0.0533261026     -0.1190855642
 C      0.0219318275     -0.0161041446      0.0190054414
 C     -0.0322028578     -0.0209449975     -0.0006860730
 C     -0.1006628324      0.0580359028     -0.0088966896
 O     -0.0500304951      0.0277215140     -0.0116362839
 B      0.0710630874     -0.0364329269      0.0008529068
 C     -0.0172217677      0.0471845699      0.0352442260
 C     -0.0161190611      0.0262445898      0.0313723827
 C      0.0239453361     -0.0091558384     -0.0143157775
 H     -0.0625319693      0.0013839594     -0.0252211569
 C      0.0697505682      0.0086827348      0.0426881536
 H     -0.0144620651     -0.0133400306     -0.0524062293
 C     -0.0189882069      0.0063609718      0.0079910565
 B     -0.0144452954     -0.0064933405     -0.0071055928
 O     -0.0166908333     -0.0045724811      0.0369952072
 C      0.0143378325     -0.0738167975     -0.0652154223
 C     -0.0077236033     -0.0438558831      0.0275407034
 C      0.0526020437     -0.0144009593      0.0023533553
 C      0.0346777403      0.0323584653     -0.0043277948
 C      0.0051866749     -0.0440376452     -0.0361934737
 C     -0.0285430992     -0.0245960129     -0.0623064748
 O      0.0065185277      0.0126216254      0.0319762502
 C     -0.0156798737     -0.0296756588     -0.0268845227
 C      0.0419417711      0.0269786323      0.0177236492
 H     -0.0082360425     -0.0028830140     -0.0088982303
 C      0.0305060739      0.0174506295     -0.0096717544
 C     -0.0372663527     -0.0515855302     -0.0189537836
 C      0.0226923473      0.0279473523     -0.0048275271
 H     -0.0286131953     -0.0384083926      0.0060391026
 H     -0.0081894747     -0.0035572922      0.0169222991
 H      0.0525632691     -0.0857387274     -0.0691482268
 H      0.0054139919      0.0154066666     -0.0073348554
 H      0.0510887862     -0.0033193757     -0.0086254346
 H      0.0306837666     -0.0358482663      0.1124616405
 H      0.0057384723      0.0295518527      0.0156121724
 H     -0.0135668676      0.0112815059      0.0143340250
 H     -0.0176242704      0.0061164023     -0.0210884653
 H      0.0531865214      0.0185124460      0.0054777559
 H      0.0033135491      0.0099710332      0.0057545612
 H      0.0396264167      0.0063761878      0.0143814064
 H      0.0462094621     -0.0669093742     -0.0047136902
 H     -0.0022661260     -0.0055078181     -0.0069496773
 H      0.0359774120      0.0056746061      0.0101622845
 H     -0.0121940525     -0.0023834681      0.0108644092
 H     -0.0258004064      0.0622321968     -0.0338207960
 H     -0.0628325613     -0.0072548322     -0.0052485545
 H     -0.0176204709      0.0404147889      0.0134468338
 H      0.0207109660      0.0183273761     -0.0197177505
 H     -0.0089778923      0.0207143137      0.0296013010
 H      0.0170468080      0.0118355208      0.0025614870
 H     -0.0088726672     -0.0017360371      0.0055573808
 H      0.0072921300      0.0058436175      0.0228110593
 H     -0.0208964179      0.0168772139      0.0098186812
 H      0.0385101564     -0.0015482399      0.0174154158
 H      0.0186142431      0.0092364947      0.0083456115
 H      0.0012611467     -0.0017717392      0.0400730602
 H     -0.0036566450     -0.0105685220      0.0043099425
60
# ORCA AIMD Force Step 6, t=3.00 fs, E_Pot=-1207.37702150 Hartree, Unit is Hartree/Angstrom
 C     -0.0402968686      0.0766763561      0.0887944963
 C     -0.0033162528     -0.0927367514     -0.0744668111
 O     -0.0360011716      0.0257358133      0.0084341749
 C     -0.0788914966      0.0586501141     -0.1113010222
 C      0.0268561078     -0.0201304207      0.0216256103
 C     -0.0294042325     -0.0198522438      0.0010292046
 C     -0.1095203809      0.0589172026     -0.0047169160
 O     -0.0549842406      0.0316172575     -0.0108799999
 B      0.0825604642     -0.0413045562      0.0029415453
 C     -0.0211172447      0.0540827949      0.0400047385
 C     -0.0201536870      0.0295949215      0.0363099017
 C      0.0176610274     -0.0096461386     -0.0194198725
 H     -0.0602188125      0.0029136660     -0.0228222470
 C      0.0781963251      0.0063034903      0.0413426292
 H     -0.0137809016     -0.0110639043     -0.0500619285
 C     -0.0199667113      0.0100690659      0.0156184985
 B     -0.0159084228     -0.0074706354     -0.0102277386
 O     -0.0157946073     -0.0029231721      0.0436815970
 C      0.0168948191     -0.0878717506     -0.0762416983
 C     -0.0097093762     -0.0408401751      0.0277225205
 C      0.0546171236     -0.0108711279     -0.0002915590
 C      0.0402053610      0.0379267082     -0.0042483305
 C      0.0068520483     -0.0519664205     -0.0344543610
 C     -0.0304552079     -0.0220561769     -0.0673757839
 O      0.0054191712      0.0124699542      0.0345554604
 C     -0.0155780682     -0.0349318979     -0.0375747544
 C      0.0484889549      0.0319830355      0.0222230365
 H     -0.0115110403     -0.0049328860     -0.0126802189
 C      0.0348590876      0.0189452564     -0.0039951133
 C     -0.0455549076     -0.0617943907     -0.0217695646
 C      0.0216030078      0.0258639850     -0.0039578197
 H     -0.0257742410     -0.0359412986      0.0099964244
 H     -0.0134177666     -0.0036569003      0.0182803678
 H      0.0536369044     -0.0859633447     -0.0674887582
 H      0.0077532271      0.0209868380     -0.0092885964
 H      0.0478799532     -0.0014545425     -0.0107309713
 H      0.0326065797     -0.0356966466      0.1103632351
 H      0.0085348129      0.0271883841      0.0126662417
 H     -0.0157430117      0.0099785254      0.0107382020
 H     -0.0235363142      0.0032039836     -0.0194363004
 H      0.0580375313      0.0212985678      0.0057213251
 H      0.0045078905      0.0089620894      0.0006496706
 H      0.0442796087      0.0071747530      0.0158958246
 H      0.0493247026     -0.0644320873     -0.0062787524
 H      0.0020450828     -0.0088326187     -0.0093712792
 H      0.0419465681      0.0073453668      0.0119832745
 H     -0.0166827496     -0.0034353615      0.0156220404
 H     -0.0273889118      0.0660594587     -0.0350557077
 H     -0.0616628913     -0.0048139752     -0.0025324904
 H     -0.0191828182      0.0384788968      0.0092816543
 H      0.0192286178      0.0185488739     -0.0157013522
 H     -0.0103933624      0.0239677402      0.0341362307
 H      0.0136667624      0.0114187178     -0.0019678331
 H     -0.0075846636      0.0033700920      0.0039709759
 H      0.0079555692      0.0068201531      0.0282729897
 H     -0.0191006694      0.0125303516      0.0108821863
 H      0.0357345267     -0.0041874608      0.0147437187
 H      0.0135147501      0.0072043911      0.0104626284
 H      0.0003066005     -0.0011648975      0.0354518804
 H     -0.0016412526     -0.0069119880      0.0005928165
60
# ORCA AIMD Force Step 7, t=3.50 fs, E_Pot=-1207.37301187 Hartree, Unit is Hartree/Angstrom
 C     -0.0323692283      0.0650253945      0.0779475284
 C     -0.0023606478     -0.1082586809     -0.0865448195
 O     -0.0452313605      0.0334742268      0.0106533170
 C     -0.0765984497      0.0595538903     -0.0878174055
 C      0.0315946544     -0.0242880206      0.0240033405
 C     -0.0214592017     -0.0178370980      0.0047063550
 C     -0.1113719039      0.0566701470      0.0019665975
 O     -0.0592972672      0.0351332032     -0.0101259337
 B      0.0929766111     -0.0455112437      0.0052434481
 C     -0.0246440692      0.0605738843      0.0444592239
 C     -0.0236714054      0.0322245790      0.0405763239
 C      0.0080457341     -0.0099825549     -0.0258407779
 H     -0.0541870049      0.0046090606     -0.0186525728
 C      0.0849521730      0.0027548747      0.0366878399
 H     -0.0120922300     -0.0076762992     -0.0443889949
 C     -0.0206546391      0.0136274162      0.0228386518
 B     -0.0171566199     -0.0082909578     -0.0132607545
 O     -0.0147707511     -0.0013637617      0.0499349465
 C      0.0192544356     -0.1011740660     -0.0866719866
 C     -0.0123984862     -0.0302722608      0.0262699072
 C      0.0538197894     -0.0053164774     -0.0036685342
 C      0.0455145782      0.0430262678     -0.0040065253
 C      0.0076387728     -0.0583508642     -0.0285447381
 C     -0.0316896373     -0.0175495509     -0.0682223800
 O      0.0042514138      0.0122439546      0.0368589664
 C     -0.0140818819     -0.0393106564     -0.0476415458
 C      0.0535248550      0.0360808824      0.0255034224
 H     -0.0135839712     -0.0061788891     -0.0153318213
 C      0.0389711110      0.0198378329      0.0040681268
 C     -0.0534158507     -0.0715749073     -0.0238704846
 C      0.0185670609      0.0211428900     -0.0036049305
 H     -0.0210105671     -0.0310104233      0.0143697852
 H     -0.0176196403     -0.0038627841      0.0193753703
 H      0.0482261280     -0.0758864002     -0.0554611466
 H      0.0094029073      0.0248699066     -0.0109452259
 H      0.0416079609      0.0009302372     -0.0125489195
 H      0.0328165762     -0.0303024546      0.0935653296
 H      0.0114978081      0.0230840943      0.0084445675
 H     -0.0174802181      0.0082756689      0.0063679776
 H     -0.0290682493     -0.0000151938     -0.0171184409
 H      0.0571316158      0.0237557641      0.0041687283
 H      0.0056864601      0.0075704559     -0.0046743988
 H      0.0440409446      0.0077102274      0.0151055449
 H      0.0504682073     -0.0581111170     -0.0078641870
 H      0.0057679368     -0.0117221648     -0.0114946724
 H      0.0442091690      0.0081389182      0.0120653546
 H     -0.0200390985     -0.0040817261      0.0192409330
 H     -0.0255929925      0.0626432182     -0.0317412089
 H     -0.0569924304     -0.0015775466      0.0009452091
 H     -0.0201757784      0.0342098261      0.0035851761
 H      0.0165235848      0.0179681032     -0.0102610842
 H     -0.0102184536      0.0262271797      0.0350945479
 H      0.0092495758      0.0104410065     -0.0070064142
 H     -0.0060161493      0.0085957274      0.0022050823
 H      0.0092166692      0.0074600948      0.0311980819
 H     -0.0161088422      0.0068659166      0.0115722181
 H      0.0305300968     -0.0070332134      0.0108028692
 H      0.0070656517      0.0046041350      0.0123858097
 H     -0.0007558863     -0.0004444006      0.0281031622
 H      0.0004897809     -0.0029058232     -0.0033767696
60
# ORCA AIMD Force Step 8, t=4.00 fs, E_Pot=-1207.37134773 Hartree, Unit is Hartree/Angstrom
 C     -0.0199654658      0.0479437112      0.0585365050
 C     -0.0010555177     -0.1228176881     -0.0977076495
 O     -0.0541211741      0.0410816642      0.0130285698
 C     -0.0704291806      0.0570168576     -0.0532267842
 C      0.0360502004     -0.0285720111      0.0260936943
 C     -0.0090355339     -0.0151998397      0.0103803110
 C     -0.1059818663      0.0508759092      0.0107726937
 O     -0.0629203958      0.0382472930     -0.0093736347
 B      0.1021036825     -0.0489832565      0.0077160094
 C     -0.0277321272      0.0665217492      0.0485509698
 C     -0.0262307541      0.0338945410      0.0439412093
 C     -0.0049363988     -0.0101628734     -0.0335494566
 H     -0.0443062448      0.0064416452     -0.0126860560
 C      0.0898697559     -0.0019340918      0.0287070489
 H     -0.0093660797     -0.0032094566     -0.0353266284
 C     -0.0210934443      0.0169382583      0.0294499309
 B     -0.0181858745     -0.0089357934     -0.0161266113
 O     -0.0136437530      0.0000627451      0.0556836495
 C      0.0213092657     -0.1134043680     -0.0963066727
 C     -0.0156225014     -0.0131985683      0.0241044401
 C      0.0499566000      0.0021716070     -0.0076634970
 C      0.0506007063      0.0475747205     -0.0035989478
 C      0.0075232066     -0.0629276125     -0.0187995373
 C     -0.0322022559     -0.0113675581     -0.0646310232
 O      0.0030284300      0.0119520256      0.0388768655
 C     -0.0114698544     -0.0428508710     -0.0568085073
 C      0.0567010635      0.0389536635      0.0272250935
 H     -0.0141063793     -0.0063793885     -0.0165665359
 C      0.0427320640      0.0201542780      0.0142612453
 C     -0.0605622218     -0.0804236333     -0.0255378879
 C      0.0136691385      0.0138883169     -0.0037099453