60
# ORCA AIMD Position Step 0, t=0.00 fs, E_Pot=-1207.43238916 Hartree, Unit is Angstrom
 C      0.5617080025     -1.6647970075     -5.9367360266
 C      0.8280620037     -2.0813710093     -4.4911560201
 O      0.3738860017     -1.0127640045     -3.6172190162
 C      0.0045730000     -3.3256300149     -4.1388460185
 C      2.3661970106     -2.2189490099     -4.1088920184
 C      2.8858680129     -3.6542190164     -4.0477700181
 C      3.2847900147     -1.3625070061     -4.9887550223
 O      2.4156870108     -1.6660490075     -2.7667270124
 B      1.2805650057     -0.9018930040     -2.5782550115
 C      1.0231070046     -0.0393540002     -1.3163860059
 C      2.0752090093      0.1301730006     -0.3780350017
 C      2.1146590095      0.9551380043      0.7368120033
 H      3.0790770138      1.0589460047      1.2609660056
 C      0.9900480044      1.8383200082      1.2261090055
 H      1.2450740056      2.2415840100      2.2209310099
 C     -0.3954360018      1.2318680055      1.2826950057
 B     -1.1572430052      1.1935250053      2.6384890118
 O     -0.6613910030      1.7594200079      3.7965880170
 C     -1.5264800068      1.3586410061      4.8944070219
 C     -1.6845080075      2.5488120114      5.8377790261
 C     -0.8294300037      0.2001050009      5.6174750252
 C     -2.8590180128      0.9164990041      4.1481740186
 C     -3.8760080174      2.0546840092      3.9999750179
 C     -3.5404740159     -0.3177570014      4.7369050212
 O     -2.3848450107      0.5852030026      2.8162480126
 C     -0.9743610044      0.6726890030      0.1911950009
 C     -0.3632630016      0.5790310026     -1.1697230052
 H     -1.0550460047      0.0884370004     -1.8749650084
 C      0.2350280011      1.7954410080     -1.8135690081
 C      0.9364060042      2.8271520127     -1.1678860052
 C      1.3072340059      2.8698800129      0.1743980008
 H      1.9904300089      3.6770820165      0.4817250022
 H     -0.5302900024     -1.5868710071     -6.1073740274
 H      0.9679960043     -2.4092790108     -6.6502350298
 H      1.0099550045     -0.6798470030     -6.1619270276
 H     -1.0713020048     -3.0900810138     -4.2560700191
 H      0.1704940008     -3.6355020163     -3.0888750138
 H      0.2476920011     -4.1798160187     -4.8005300215
 H      2.7893530125     -4.1590370186     -5.0297170225
 H      2.3434180105     -4.2468300190     -3.2885310147
 H      3.9576200177     -3.6484370163     -3.7670210169
 H      3.3541120150     -1.7633620079     -6.0191140270
 H      4.3018590193     -1.3562020061     -4.5504060204
 H      2.9314620131     -0.3146480014     -5.0433600226
 H      3.0176640135     -0.3770900017     -0.6442680029
 H     -0.7072890032      2.7887690125      6.3015720282
 H     -2.4043790108      2.3225970104      6.6497070298
 H     -2.0320020091      3.4488620154      5.2983800237
 H      0.1756740008      0.5299800024      5.9453750266
 H     -0.6990370031     -0.6730540030      4.9493970222
 H     -1.3995400063     -0.1224610005      6.5104800292
 H     -4.3340390194      2.3223070104      4.9724910223
 H     -4.6826350210      1.7293060077      3.3143630148
 H     -3.4102650153      2.9619520133      3.5689880160
 H     -3.8384320172     -0.1441390006      5.7904020259
 H     -2.8799480129     -1.2029520054      4.6960930210
 H     -4.4545810200     -0.5524860025      4.1563240186
 H     -1.9765100089      0.2265140010      0.3106400014
 H      0.1168180005      1.8565940083     -2.9056030130
 H      1.3460230060      3.6178710162     -1.8171380081
60
# ORCA AIMD Position Step 1, t=0.50 fs, E_Pot=-1207.42911572 Hartree, Unit is Angstrom
 C      0.5658283959     -1.6642973539     -5.9347253041
 C      0.8275790288     -2.0725949809     -4.4826582700
 O      0.3780558451     -1.0122217673     -3.6168494482
 C      0.0104430869     -3.3298981084     -4.1352160850
 C      2.3627550215     -2.2150833536     -4.1108930778
 C      2.8827619750     -3.6501792042     -4.0493023516
 C      3.2869924336     -1.3644856151     -4.9902171834
 O      2.4190595411     -1.6675543910     -2.7670913346
 B      1.2761116320     -0.8995114709     -2.5781062427
 C      1.0249563097     -0.0460747155     -1.3180288181
 C      2.0777841279      0.1294580446     -0.3816217259
 C      2.1160788640      0.9529821629      0.7380351652
 H      3.0971669301      1.0524117626      1.2639882077
 C      0.9855668173      1.8384913586      1.2242549480
 H      1.2463106129      2.2398435037      2.2330943917
 C     -0.3926605347      1.2300635475      1.2823811369
 B     -1.1558039088      1.1929603630      2.6391064764
 O     -0.6619472031      1.7625500374      3.7918515612
 C     -1.5270588577      1.3662132530      4.8992422622
 C     -1.6821603753      2.5486978983      5.8364920250
 C     -0.8339807156      0.1973638650      5.6157040719
 C     -2.8617978127      0.9163701300      4.1485608501
 C     -3.8745555658      2.0581996091      3.9993443661
 C     -3.5377176942     -0.3145435901      4.7401525506
 O     -2.3839675762      0.5837235475      2.8149701132
 C     -0.9730445339      0.6809397040      0.1928285799
 C     -0.3643198574      0.5781138370     -1.1699870910
 H     -1.0558189464      0.0868080333     -1.8680323525
 C      0.2312885384      1.7974779651     -1.8132781361
 C      0.9387329321      2.8330242930     -1.1652924937
 C      1.3042183915      2.8711216854      0.1753574664
 H      1.9932610907      3.6899886465      0.4731089018
 H     -0.5187695731     -1.5759706175     -6.1265704279
 H      0.9654302532     -2.3853910934     -6.6367551814
 H      1.0177203627     -0.6834978228     -6.1476609149
 H     -1.0798828769     -3.0942466818     -4.2412138610
 H      0.1610683920     -3.6407226909     -3.1101919789
 H      0.2387837917     -4.1868811382     -4.8072091616
 H      2.8079051302     -4.1635444905     -5.0304399273
 H      2.3537092935     -4.2453000797     -3.2805199702
 H      3.9380187404     -3.6521480561     -3.7549418475
 H      3.3506114325     -1.7709875178     -6.0187991169
 H      4.2899697498     -1.3588533865     -4.5481657150
 H      2.9085170198     -0.3037938295     -5.0403888768
 H      3.0236477551     -0.3698308212     -0.6413984977
 H     -0.7175156119      2.7925180060      6.3021328717
 H     -2.3965761066      2.3165175712      6.6454791650
 H     -2.0326555688      3.4313167211      5.3044770064
 H      0.1909645218      0.5185938752      5.9408211347
 H     -0.6942265807     -0.6851467713      4.9462378692
 H     -1.4095870205     -0.1367823228      6.5080411871
 H     -4.3307454082      2.3102860953      4.9664284975
 H     -4.6868998863      1.7243346320      3.3197072018
 H     -3.4043454170      2.9607621283      3.5644972577
 H     -3.8435775796     -0.1510421570      5.7859450733
 H     -2.8737346997     -1.2012304305      4.6821688555
 H     -4.4637769134     -0.5397385978      4.1563603982
 H     -1.9805672218      0.2362654124      0.3021152469
 H      0.1198225254      1.8573468461     -2.9143403788
 H      1.3465695037      3.6268065212     -1.8129950686
60
# ORCA AIMD Position Step 2, t=1.00 fs, E_Pot=-1207.42078019 Hartree, Unit is Angstrom
 C      0.5698947695     -1.6636814765     -5.9326366072
 C      0.8270940184     -2.0638814291     -4.4742031785
 O      0.3822663791     -1.0117128240     -3.6164740818
 C      0.0161780110     -3.3341346361     -4.1317342967
 C      2.3593202705     -2.2112210757     -4.1128574436
 C      2.8796180830     -3.6462003095     -4.0508279482
 C      3.2890875016     -1.3663420201     -4.9917116802
 O      2.4223367200     -1.6690272509     -2.7675170965
 B      1.2717545460     -0.8971943203     -2.5779866189
 C      1.0268128951     -0.0527071502     -1.3195933800
 C      2.0803431636      0.1287996994     -0.3851671085
 C      2.1175871364      0.9507874662      0.7392132811
 H      3.1129474819      1.0457220907      1.2659239648
 C      0.9812000216      1.8386969702      1.2224861099
 H      1.2470379104      2.2374116793      2.2433398505
 C     -0.3899475159      1.2282112229      1.2819464863
 B     -1.1544055142      1.1923850099      2.6397541849
 O     -0.6625795046      1.7656365111      3.7871414277
 C     -1.5276222742      1.3737090897      4.9039842781
 C     -1.6798232648      2.5485508395      5.8352574187
 C     -0.8384330335      0.1945699175      5.6139524531
 C     -2.8645201870      0.9162800881      4.1489306496
 C     -3.8731194776      2.0616902873      3.9986470835
 C     -3.5350175497     -0.3114005523      4.7433265920
 O     -2.3830480894      0.5822939565      2.8137704877
 C     -0.9717310879      0.6891932343      0.1945502450
 C     -0.3653234901      0.5772217637     -1.1702701448
 H     -1.0560607744      0.0856444114     -1.8604760785
 C      0.2276119650      1.7995436012     -1.8130254629
 C      0.9410426480      2.8388319733     -1.1626839795
 C      1.3012428647      2.8724223135      0.1762401495
 H      1.9947597214      3.7013375497      0.4642370050
 H     -0.5062770746     -1.5652424870     -6.1452874597
 H      0.9632256478     -2.3621158144     -6.6235490823
 H      1.0251533324     -0.6879400712     -6.1332486356
 H     -1.0863858078     -3.0987152881     -4.2263586788
 H      0.1520224268     -3.6461102439     -3.1307976405
 H      0.2297114404     -4.1925728974     -4.8129659850
 H      2.8263537997     -4.1673350815     -5.0299817081
 H      2.3642999806     -4.2430313863     -3.2736531074
 H      3.9181847131     -3.6555425942     -3.7431064124
 H      3.3470356381     -1.7780781024     -6.0173141367
 H      4.2776349099     -1.3614464792     -4.5461122143
 H      2.8866381540     -0.2953171338     -5.0373595630
 H      3.0285560704     -0.3620714814     -0.6383185257
 H     -0.7281869035      2.7960228486      6.3023643706
 H     -2.3882132900      2.3105843704      6.6405830533
 H     -2.0333652697      3.4137891178      5.3105727070
 H      0.2040814961      0.5067193668      5.9357659791
 H     -0.6898239514     -0.6956344063      4.9440014087
 H     -1.4187310804     -0.1504770523      6.5043235821
 H     -4.3271078172      2.2982928270      4.9598730864
 H     -4.6900088426      1.7198300444      3.3258466753
 H     -3.3989853359      2.9585822800      3.5605136669
 H     -3.8483254497     -0.1579719545      5.7807916745
 H     -2.8685058848     -1.1982566686      4.6684394983
 H     -4.4713336568     -0.5266451116      4.1573205921
 H     -1.9831769825      0.2466778595      0.2935525276
 H      0.1230251454      1.8579221124     -2.9211260661
 H      1.3466062284      3.6346705203     -1.8080442701
60
# ORCA AIMD Position Step 3, t=1.50 fs, E_Pot=-1207.40896203 Hartree, Unit is Angstrom
 C      0.5738583640     -1.6628407089     -5.9303446576
 C      0.8265971870     -2.0553026486     -4.4658501297
 O      0.3864888842     -1.0112127822     -3.6160886959
 C      0.0216847520     -3.3382792052     -4.1285685346
 C      2.3559149689     -2.2073762994     -4.1147705798
 C      2.8763805746     -3.6423015341     -4.0523525679
 C      3.2909478087     -1.3680012605     -4.9932565209
 O      2.4254924944     -1.6704472206     -2.7680015127
 B      1.2675770848     -0.8949821312     -2.5778899656
 C      1.0286529858     -0.0592186581     -1.3210528067
 C      2.0828787395      0.1282181707     -0.3886433204
 C      2.1192246898      0.9485478124      0.7403528584
 H      3.1256486268      1.0388972828      1.2664526207
 C      0.9770176200      1.8389507091      1.2208628831
 H      1.2470620096      2.2341176137      2.2509988602
 C     -0.3873055522      1.2263278222      1.2814286550
 B     -1.1530585829      1.1917903735      2.6404160444
 O     -0.6632884337      1.7686903901      3.7824824904
 C     -1.5281548743      1.3810592109      4.9085733893
 C     -1.6775021910      2.5483014861      5.8341069499
 C     -0.8427262811      0.1916980045      5.6122238519
 C     -2.8671553515      0.9162649255      4.1492814205
 C     -3.8716895483      2.0651068003      3.9978329178
 C     -3.5324047694     -0.3083558740      4.7463514734
 O     -2.3820882598      0.5809128759      2.8126617547
 C     -0.9704514433      0.6974163321      0.1963073166
 C     -0.3662314611      0.5763823029     -1.1705460121
 H     -1.0560161569      0.0848015816     -1.8525633900
 C      0.2240183360      1.8016635642     -1.8128349070
 C      0.9432933592      2.8445341125     -1.1600945871
 C      1.2983387709      2.8738276184      0.1770650229
 H      1.9946076453      3.7106826680      0.4551880543
 H     -0.4931365796     -1.5546956188     -6.1633596460
 H      0.9622860177     -2.3409553572     -6.6118972558
 H      1.0324181627     -0.6927553890     -6.1188263782
 H     -1.0901875504     -3.1035386749     -4.2116014918
 H      0.1438571301     -3.6523171547     -3.1486348806
 H      0.2205581889     -4.1965961908     -4.8176658494
 H      2.8445159525     -4.1703540202     -5.0282906095
 H      2.3748913118     -4.2400276630     -3.2680870821
 H      3.8991653754     -3.6583835750     -3.7313381615
 H      3.3434450314     -1.7845551267     -6.0147473012
 H      4.2656760958     -1.3638790320     -4.5439432646
 H      2.8664302307     -0.2901268164     -5.0343473540
 H      3.0325513959     -0.3539842943     -0.6351777377
 H     -0.7385776544      2.7994324561      6.3025240750
 H     -2.3795903506      2.3047267585      6.6353191466
 H     -2.0345865168      3.3974367770      5.3160193831
 H      0.2142363050      0.4942328515      5.9301506112
 H     -0.6860508066     -0.7040550076      4.9428274104
 H     -1.4267548528     -0.1633573400      6.4991576355
 H     -4.3233740076      2.2866777381      4.9534686491
 H     -4.6918486132      1.7159211679      3.3327320843
 H     -3.3942426645      2.9555331228      3.5570429018
 H     -3.8526482685     -0.1648276898      5.7754917938
 H     -2.8644704002     -1.1939156376      4.6550064798
 H     -4.4768129405     -0.5132470049      4.1593996218
 H     -1.9842311447      0.2578304805      0.2850763824
 H      0.1264285321      1.8583203714     -2.9255305116
 H      1.3461506530      3.6414654833     -1.8023237326
60
# ORCA AIMD Position Step 4, t=2.00 fs, E_Pot=-1207.39608523 Hartree, Unit is Angstrom
 C      0.5776736378     -1.6616712611     -5.9277199622
 C      0.8260809640     -2.0469257774     -4.4576520224
 O      0.3906972235     -1.0106943032     -3.6156876461
 C      0.0268930208     -3.3422701779     -4.1258733664
 C      2.3525585978     -2.2035598477     -4.1166200776
 C      2.8729954428     -3.6384903593     -4.0538851593
 C      3.2924540237     -1.3694097579     -4.9948654953
 O      2.4285058970     -1.6717966968     -2.7685425544
 B      1.2636555235     -0.8929105955     -2.5778083469
 C      1.0304551966     -0.0655827620     -1.3223814799
 C      2.0853805534      0.1277345007     -0.3920257313
 C      2.1210159125      0.9462542266      0.7414523917
 H      3.1347347581      1.0319728739      1.2653731846
 C      0.9730800432      1.8392599905      1.2194274805
 H      1.2462415303      2.2298666961      2.2556029595
 C     -0.3847392328      1.2244289790      1.2808670474
 B     -1.1517720470      1.1911673613      2.6410756047
 O     -0.6640745645      1.7717257981      3.7778947288
 C     -1.5286418720      1.3881998930      4.9129543302
 C     -1.6751985065      2.5478829448      5.8330675700
 C     -0.8468167356      0.1887283726      5.6105147589
 C     -2.8696764076      0.9163602336      4.1496119254
 C     -3.8702503865      2.0684017973      3.9968577559
 C     -3.5299006633     -0.3054240481      4.7491600272
 O     -2.3810890983      0.5795774815      2.8116550410
 C     -0.9692274585      0.7055868645      0.1980456959
 C     -0.3670003050      0.5756245565     -1.1707856128
 H     -1.0559606238      0.0841099579     -1.8445833022
 C      0.2205247994      1.8038621289     -1.8127169553
 C      0.9454439802      2.8500915952     -1.1575502635
 C      1.2955251508      2.8753723094      0.1778483297
 H      1.9926012813      3.7177251108      0.4460806407
 H     -0.4796942301     -1.5443195173     -6.1806623072
 H      0.9635236605     -2.3233676592     -6.6030769156
 H      1.0397076319     -0.6974928282     -6.1045181556
 H     -1.0908709446     -3.1087292986     -4.1970445411
 H      0.1370238645     -3.6600189608     -3.1617008099
 H      0.2114241479     -4.1987577528     -4.8212492857
 H      2.8622324103     -4.1725832020     -5.0253838029
 H      2.3851546424     -4.2363413241     -3.2639037868
 H      3.8819659759     -3.6604453721     -3.7194300155
 H      3.3399017972     -1.7903850752     -6.0112585646
 H      4.2549127235     -1.3660596782     -4.5413361300
 H      2.8483890385     -0.2888454648     -5.0314340175
 H      3.0358614830     -0.3457605505     -0.6321349337
 H     -0.7479554634      2.8029167741      6.3028851654
 H     -2.3710303517      2.2988535015      6.6300217860
 H     -2.0367906485      3.3833881291      5.3201812784
 H      0.2208540095      0.4810722704      5.9239709534
 H     -0.6831014492     -0.7100890406      4.9427571500
 H     -1.4335216607     -0.1752866295      6.4924693512
 H     -4.3197947181      2.2757674898      4.9478672869
 H     -4.6923877705      1.7126973105      3.3402558451
 H     -3.3901304511      2.9517985284      3.5540555233
 H     -3.8565407721     -0.1715171436      5.7706148508
 H     -2.8617595868     -1.1881787332      4.6419549388
 H     -4.4799238758     -0.4996073604      4.1627056022
 H     -1.9837291725      0.2697651485      0.2768116022
 H      0.1300201145      1.8585527677     -2.9272977418
 H      1.3452541888      3.6472711366     -1.7959237799
60
# ORCA AIMD Position Step 5, t=2.50 fs, E_Pot=-1207.38480571 Hartree, Unit is Angstrom
 C      0.5813074468     -1.6600905382     -5.9246490117
 C      0.8255402577     -2.0388151508     -4.4496572800
 O      0.3948667773     -1.0101273146     -3.6152638206
 C      0.0317563323     -3.3460518448     -4.1237630294
 C      2.3492688636     -2.1997807189     -4.1183950502
 C      2.8694187073     -3.6347638531     -4.0554344793
 C      3.2935015869     -1.3705320758     -4.9965454719
 O      2.4313597439     -1.6730601757     -2.7691389496
 B      1.2600605706     -0.8910114163     -2.5777320662
 C      1.0322002080     -0.0717772585     -1.3235544460
 C      2.0878358193      0.1273700336     -0.3952923849
 C      2.1229689066      0.9438957508      0.7425024319
 H      3.1398906543      1.0249981530      1.2625959266
 C      0.9694394443      1.8396260114      1.2182047093
 H      1.2444884285      2.2246366347      2.2568771973
 C     -0.3822500135      1.2225294222      1.2803020887
 B     -1.1505534342      1.1905066148      2.6417160965
 O     -0.6649385563      1.7747590121      3.7733945836
 C     -1.5290689265      1.3950709925      4.9170746656
 C     -1.6729115185      2.5472424250      5.8321590224
 C     -0.8506760755      0.1856485457      5.6088151787
 C     -2.8720582518      0.9166011989      4.1499217339
 C     -3.8687840131      2.0715307967      3.9956882690
 C     -3.5275186969     -0.3026065369      4.7516963717
 O     -2.3800511076      0.5782839553      2.8107605049
 C     -0.9680721395      0.7136918038      0.1997104601
 C     -0.3675867617      0.5749783528     -1.1709588209
 H     -1.0561786855      0.0833908169     -1.8368270395
 C      0.2171465638      1.8061618783     -1.8126684526
 C      0.9474536376      2.8554656849     -1.1550696150
 C      1.2928093175      2.8770792905      0.1786033405
 H      1.9886516551      3.7223122632      0.4370720599
 H     -0.4663006105     -1.5340905883     -6.1971054518
 H      0.9677288885     -2.3105475816     -6.5981419472
 H      1.0472295645     -0.7016970521     -6.0904345053
 H     -1.0882149376     -3.1142615736     -4.1827911449
 H      0.1318877209     -3.6698039479     -3.1683749957
 H      0.2024274169     -4.1989689493     -4.8237362752
 H      2.8793674495     -4.1740399174     -5.0213452707
 H      2.3947383526     -4.2320696921     -3.2611166061
 H      3.8674533946     -3.6615131045     -3.7071799585
 H      3.3364702069     -1.7955758964     -6.0070706400
 H      4.2460801841     -1.3679093800     -4.5379874449
 H      2.8329059414     -0.2918403869     -5.0287065667
 H      3.0387596655     -0.3376020942     -0.6293532851
 H     -0.7556371114      2.8066516161      6.3037074079
 H     -2.3628620590      2.2928613722      6.6250394418
 H     -2.0404065895      3.3726142654      5.3225161856
 H      0.2235639239      0.4672325058      5.9172748066
 H     -0.6811429915     -0.7135574614      4.9437334939
 H     -1.4389740921     -0.1861780153      6.4842806542
 H     -4.3165956757      2.2658537549      4.9436699380
 H     -4.6916754175      1.7102084835      3.3482542707
 H     -3.3866215054      2.9476176927      3.5514907822
 H     -3.8600043539     -0.1779606755      5.7667076296
 H     -2.8604266339     -1.1811063289      4.6293531583
 H     -4.4805213588     -0.4858098783      4.1672619765
 H     -1.9817769294      0.2824848431      0.2688820160
 H      0.1337740258      1.8586402025     -2.9263441215
 H      1.3439980773      3.6522354937     -1.7889828363
60
# ORCA AIMD Position Step 6, t=3.00 fs, E_Pot=-1207.37702150 Hartree, Unit is Angstrom
 C      0.5847483532     -1.6580547012     -5.9210578382
 C      0.8249728969     -2.0310378657     -4.4419152017
 O      0.3989716235     -1.0094794045     -3.6148087085
 C      0.0362501364     -3.3495815838     -4.1222840842
 C      2.3460639052     -2.1960490310     -4.1200848751
 C      2.8656261897     -3.6311119571     -4.0570043952
 C      3.2940074390     -1.3713477065     -4.9982925762
 O      2.4340382149     -1.6742230285     -2.7697898202
 B      1.2568604081     -0.8893140306     -2.5776497502
 C      1.0338695466     -0.0777797758     -1.3245465030
 C      2.0902291847      0.1271458080     -0.3984221412
 C      2.1250746776      0.9414613548      0.7434852184
 H      3.1410085646      1.0180382922      1.2581372722
 C      0.9661425489      1.8400437144      1.2172032067
 H      1.2417694529      2.2184763983      2.2547342270
 C     -0.3798380902      1.2206441856      1.2797749009
 B     -1.1494097739      1.1897990512      2.6423201655
 O     -0.6658807791      1.7778063071      3.7689981661
 C     -1.5294218402      1.4016111312      4.9208814258
 C     -1.6706421299      2.5463539846      5.8313919290
 C     -0.8542883095      0.1824561451      5.6071100709
 C     -2.8742754283      0.9170225735      4.1502111282
 C     -3.8672732163      2.0744518151      3.9943072173
 C     -3.5252676905     -0.2998935684      4.7539179214
 O     -2.3789749558      0.5770284436      2.8099881521
 C     -0.9669904259      0.7217217140      0.2012455882
 C     -0.3679491400      0.5744733641     -1.1710365283
 H     -1.0569383308      0.0824751143     -1.8295691098
 C      0.2138992538      1.8085824857     -1.8126725643
 C      0.9492803622      2.8606147046     -1.1526661665
 C      1.2901886715      2.8789583657      0.1793400263
 H      1.9827858226      3.7244346285      0.4283610237
 H     -0.4532976977     -1.5239834659     -6.2126192686
 H      0.9754211151     -2.3032016053     -6.5976805318
 H      1.0551876433     -0.7049382577     -6.0766781157
 H     -1.0821852920     -3.1200712514     -4.1689476605
 H      0.1287046694     -3.6820421971     -3.1677587789
 H      0.1937086769     -4.1972476735     -4.8252281422
 H      2.8958003560     -4.1747738507     -5.0163244269
 H      2.4032722808     -4.2273512263     -3.2596798218
 H      3.8562653337     -3.6613804191     -3.6944382314
 H      3.3332182869     -1.8001702863     -6.0024604806
 H      4.2397460697     -1.3693617200     -4.5336608381
 H      2.8202800351     -0.2992484055     -5.0262581010
 H      3.0415409597     -0.3297156320     -0.6269964236
 H     -0.7610467364      2.8107985376      6.3052039071
 H     -2.3554034027      2.2866481200      6.6207142826
 H     -2.0457509589      3.3657977483      5.3226621963
 H      0.2221896082      0.4527674609      5.9101623133
 H     -0.6803168801     -0.7144175861      4.9456008082
 H     -1.4431297878     -0.1959877887      6.4747120996
 H     -4.3139496750      2.2571885235      4.9413650077
 H     -4.6898392700      1.7084675008      3.3565072633
 H     -3.3836553466      2.9432777928      3.5492620299
 H     -3.8630281342     -0.1840916038      5.7642514193
 H     -2.8604472974     -1.1728521609      4.6172573487
 H     -4.4786040627     -0.4719639140      4.1730080256
 H     -1.9785848059      0.2959473936      0.2614127005
 H      0.1376512735      1.8586125909     -2.9227565531
 H      1.3424889227      3.6565618422     -1.7816843385
60
# ORCA AIMD Position Step 7, t=3.50 fs, E_Pot=-1207.37301187 Hartree, Unit is Angstrom
 C      0.5880122904     -1.6555706926     -5.9169316469
 C      0.8243799297     -2.0236696830     -4.4344821935
 O      0.4029811064     -1.0087168132     -3.6143128610
 C      0.0403683605     -3.3528345591     -4.1213981224
 C      2.3429650518     -2.1923796164     -4.1216776928
 C      2.8616227023     -3.6275218404     -4.0585890326
 C      3.2939174680     -1.3718498668     -5.0000883077
 O      2.4365244181     -1.6752704237     -2.7704940672
 B      1.2541232528     -0.8878470338     -2.5775483887
 C      1.0354444082     -0.0835627554     -1.3253314035
 C      2.0925427731      0.1270814512     -0.4013928178
 C      2.1273049285      0.9389422962      0.7443739502
 H      3.1381942886      1.0111790299      1.2521249757
 C      0.9632329495      1.8405015114      1.2164160966
 H      1.2381119854      2.2115110616      2.2492824093
 C     -0.3775046747      1.2187898551      1.2793267743
 B     -1.1483484872      1.1890366456      2.6428695719
 O     -0.6669004547      1.7808810951      3.7647250406
 C     -1.5296864100      1.4077528642      4.9243182607
 C     -1.6683966816      2.5452293777      5.8307673573
 C     -0.8576470333      0.1791625030      5.6053812217
 C     -2.8763002509      0.9176580257      4.1504809127
 C     -3.8657051165      2.0771249287      3.9927187273
 C     -3.5231549704     -0.2972666916      4.7557977295
 O     -2.3778624550      0.5758081227      2.8093484592
 C     -0.9659803515      0.7296637435      0.2025939763
 C     -0.3680495213      0.5741377341     -1.1709930120
 H     -1.0584622645      0.0812242248     -1.8230480021
 C      0.2108015175      1.8111387241     -1.8126987035
 C      0.9508802396      2.8654906897     -1.1503512519
 C      1.2876528233      2.8810040960      0.1800645077
 H      1.9751546066      3.7242289804      0.4201920495
 H     -0.4410053570     -1.5139847916     -6.2271364214
 H      0.9867285376     -2.3013942342     -6.6016362933
 H      1.0637571846     -0.7068460814     -6.0633518926
 H     -1.0729393427     -3.1260516870     -4.1556277441
 H      0.1276173048     -3.6967788718     -3.1599014299
 H      0.1854361058     -4.1937221417     -4.8259092415
 H      2.9114148277     -4.1748633270     -5.0105346221
 H      2.4103744526     -4.2223615130     -3.2594982254
 H      3.8487357567     -3.6598501173     -3.6811561043
 H      3.3302195908     -1.8042369568     -5.9977478876
 H      4.2362317738     -1.3703626875     -4.5282362567
 H      2.8107229119     -0.3109754392     -5.0241893516
 H      3.0444923973     -0.3223056623     -0.6252231498
 H     -0.7637774459      2.8154807097      6.3075052113
 H     -2.3489412853      2.2801290486      6.6173568269
 H     -2.0529597659      3.3632222232      5.3205125753
 H      0.2167561054      0.4377991089      5.9027914994
 H     -0.6807372721     -0.7127669970      4.9481006796
 H     -1.4460792070     -0.2047092435      6.4639902588
 H     -4.3119504947      2.2499816192      4.9412674174
 H     -4.6870835732      1.7074522897      3.3647384356
 H     -3.3811477714      2.9391024207      3.5472645963
 H     -3.8655697701     -0.1898551428      5.7636163121
 H     -2.8617200741     -1.1636695967      4.6057177082
 H     -4.4743198574     -0.4582126283      4.1797949700
 H     -1.9744654909      0.3100569018      0.2545321230
 H      0.1415989547      1.8585082741     -2.9167989143
 H      1.3408526078      3.6604913535     -1.7742522302
60
# ORCA AIMD Position Step 8, t=4.00 fs, E_Pot=-1207.37134773 Hartree, Unit is Angstrom
 C      0.5911427102     -1.6526949785     -5.9123202208
 C      0.8237658747     -2.0167965103     -4.4274238378
 O      0.4068585206     -1.0078055365     -3.6137662359
 C      0.0441213820     -3.3558042945     -4.1209832400
 C      2.3399977089     -2.1887937170     -4.1231601976
 C      2.8574464609     -3.6239808284     -4.0601694196
 C      3.2932134879     -1.3720470807     -5.0018977465
 O      2.4387996455     -1.6761870032     -2.7712497599
 B      1.2519171139     -0.8866382278     -2.5774135874
 C      1.0369051862     -0.0890914399     -1.3258824055
 C      2.0947577198      0.1271935183     -0.4041808151
 C      2.1296099106      0.9363339051      0.7451326424
 H      3.1317890013      1.0045282540      1.2448076707
 C      0.9607510242      1.8409807189      1.2158200959
 H      1.2336117785      2.2039473180      2.2408459249
 C     -0.3752530314      1.2169851760      1.2789981876
 B     -1.1473775897      1.1882131405      2.6433454144
 O     -0.6679950702      1.7839922481      3.7605998114
 C     -1.5298486536      1.4134218158      4.9273251602
 C     -1.6661887807      2.5439228488      5.8302787945
 C     -0.8607555113      0.1757946217      5.6036085737
 C     -2.8781023041      0.9185388926      4.1507323379
 C     -3.8640735689      2.0795135013      3.9909514840
 C     -3.5211877528     -0.2947004941      4.7573278468
 O     -2.3767171978      0.5746217087      2.8088522794
 C     -0.9650339607      0.7374979606      0.2036986528
 C     -0.3678567742      0.5739960407     -1.1708085788
 H     -1.0608975965      0.0795511536     -1.8174429979
 C      0.2078758928      1.8138390277     -1.8127028164
 C      0.9522080697      2.8700394624     -1.1481360562
 C      1.2851844962      2.8831940990      0.1807790499
 H      1.9660416763      3.7219874391      0.4128535985