60
# ORCA AIMD Position Step 0, t=0.00 fs, E_Pot=-1207.44092332 Hartree, Unit is Angstrom
 C      0.5586370025     -1.6678410075     -5.9384520266
 C      0.8229740037     -2.0794190093     -4.4913750201
 O      0.3618960016     -0.9999350045     -3.6313870163
 C      0.0038140000     -3.3253570149     -4.1362160185
 C      2.3598750106     -2.2085010099     -4.1021020184
 C      2.8847560129     -3.6431070163     -4.0357670181
 C      3.2793620147     -1.3590710061     -4.9884970223
 O      2.4001960107     -1.6303850073     -2.7653710124
 B      1.2745530057     -0.8434660038     -2.6086810117
 C      1.0375520046      0.1251180006     -1.4037640063
 C      2.0818970093      0.1509760007     -0.3788830017
 C      2.1160020095      0.8951330040      0.7639090034
 H      3.0680190137      0.9597480043      1.3156320059
 C      1.0185530046      1.8416230082      1.2078310054
 H      1.2622400057      2.2423100100      2.2085020099
 C     -0.3791530017      1.2378140055      1.2812550057
 B     -1.1446090051      1.2006240054      2.6371910118
 O     -0.6547940029      1.7625530079      3.7998210170
 C     -1.5238100068      1.3604850061      4.8935190219
 C     -1.6850730075      2.5495940114      5.8378430261
 C     -0.8303520037      0.2008360009      5.6186200252
 C     -2.8544660128      0.9187270041      4.1431430186
 C     -3.8745290174      2.0549870092      3.9986090179
 C     -3.5367870158     -0.3170920014      4.7298290212
 O     -2.3758230106      0.5928830027      2.8115820126
 C     -0.9776490044      0.6707480030      0.2019800009
 C     -0.4158150019      0.5554040025     -1.1574960052
 H     -1.0922910049      0.0666260003     -1.8741940084
 C      0.3762270017      1.6478430074     -1.8106850081
 C      0.9579060043      2.8078150126     -1.1561190052
 C      1.2660720057      2.9158690131      0.1693840008
 H      1.9132260086      3.7502740168      0.4846790022
 H     -0.5336010024     -1.5908950071     -6.1063230273
 H      0.9658590043     -2.4102600108     -6.6534160298
 H      1.0034660045     -0.6808510030     -6.1607620276
 H     -1.0728460048     -3.0952000139     -4.2546600191
 H      0.1712920008     -3.6359980163     -3.0869230138
 H      0.2504080011     -4.1788740187     -4.7981010215
 H      2.7875070125     -4.1468600186     -5.0189640225
 H      2.3463250105     -4.2425790190     -3.2795060147
 H      3.9581500177     -3.6390740163     -3.7612460168
 H      3.3466520150     -1.7648740079     -6.0172040269
 H      4.2973020192     -1.3505760060     -4.5524700204
 H      2.9273010131     -0.3112930014     -5.0478670226
 H      2.9969780134     -0.4014840018     -0.6470070029
 H     -0.7087120032      2.7896910125      6.3029890282
 H     -2.4062510108      2.3223360104      6.6485030298
 H     -2.0316880091      3.4498360155      5.2983280237
 H      0.1742430008      0.5293280024      5.9489400266
 H     -0.6992420031     -0.6726350030      4.9511410222
 H     -1.4031030063     -0.1209560005      6.5103750292
 H     -4.3321680194      2.3192280104      4.9724480223
 H     -4.6814870210      1.7293810077      3.3134590148
 H     -3.4111860153      2.9640280133      3.5692160160
 H     -3.8352800172     -0.1448830006      5.7835840259
 H     -2.8776620129     -1.2031940054      4.6892860210
 H     -4.4515850199     -0.5510890025      4.1500000186
 H     -1.9811880089      0.2332440010      0.3376720015
 H      0.1787360008      1.7685700079     -2.8870350129
 H      1.3231720059      3.6021130161     -1.8287960082
60
# ORCA AIMD Position Step 1, t=0.50 fs, E_Pot=-1207.43776967 Hartree, Unit is Angstrom
 C      0.5627573959     -1.6673413539     -5.9364413041
 C      0.8224910287     -2.0706429809     -4.4828772700
 O      0.3660658450     -0.9993927673     -3.6310174482
 C      0.0096840869     -3.3296251084     -4.1325860850
 C      2.3564330215     -2.2046353535     -4.1041030777
 C      2.8816499750     -3.6390672041     -4.0372993516
 C      3.2815644336     -1.3610496150     -4.9899591834
 O      2.4035685410     -1.6318903908     -2.7657353346
 B      1.2700996320     -0.8410844706     -2.6085322428
 C      1.0394013097      0.1183972853     -1.4054068185
 C      2.0844721279      0.1502610447     -0.3824697259
 C      2.1174218640      0.8929771626      0.7651321654
 H      3.0861089301      0.9532137622      1.3186542079
 C      1.0140718175      1.8417943587      1.2059769479
 H      1.2634766130      2.2405695037      2.2206653916
 C     -0.3763775347      1.2360095475      1.2809411369
 B     -1.1431699087      1.2000593630      2.6378084764
 O     -0.6553502030      1.7656830375      3.7950845612
 C     -1.5243888577      1.3680572530      4.8983542622
 C     -1.6827253753      2.5494798983      5.8365560250
 C     -0.8349027156      0.1980948650      5.6168490719
 C     -2.8572458127      0.9185981300      4.1435298501
 C     -3.8730765658      2.0585026091      3.9979783661
 C     -3.5340306942     -0.3138785901      4.7330765506
 O     -2.3749455761      0.5914035475      2.8103041132
 C     -0.9763325339      0.6789987040      0.2036135799
 C     -0.4168718577      0.5544868369     -1.1577600909
 H     -1.0930639466      0.0649970332     -1.8672613525
 C      0.3724875391      1.6498799644     -1.8103941361
 C      0.9602329322      2.8136872929     -1.1535254937
 C      1.2630563913      2.9171106856      0.1703434664
 H      1.9160570903      3.7631806468      0.4760629018
 H     -0.5220805731     -1.5799946175     -6.1255194279
 H      0.9632932532     -2.3863720934     -6.6399361814
 H      1.0112313627     -0.6845018228     -6.1464959149
 H     -1.0814268769     -3.0993656818     -4.2398038610
 H      0.1618663920     -3.6412186909     -3.1082399789
 H      0.2414997917     -4.1859391382     -4.8047801616
 H      2.8060591302     -4.1513674905     -5.0196869273
 H      2.3566162935     -4.2410490797     -3.2714949701
 H      3.9385487404     -3.6427850561     -3.7491668475
 H      3.3431514325     -1.7724995178     -6.0168891169
 H      4.2854127498     -1.3532273865     -4.5502297150
 H      2.9043560198     -0.3004388295     -5.0448958769
 H      3.0029617550     -0.3942248213     -0.6441374977
 H     -0.7189386119      2.7934400060      6.3035498717
 H     -2.3984481066      2.3162565712      6.6442751650
 H     -2.0323415688      3.4322907211      5.3044250064
 H      0.1895335218      0.5179418752      5.9443861347
 H     -0.6944315807     -0.6847277713      4.9479818692
 H     -1.4131500205     -0.1352773228      6.5079361871
 H     -4.3288744082      2.3072070953      4.9663854975
 H     -4.6857518863      1.7244096320      3.3188032018
 H     -3.4052664170      2.9628381283      3.5647252577
 H     -3.8404255796     -0.1517861570      5.7791270733
 H     -2.8714486997     -1.2014724305      4.6753618554
 H     -4.4607809134     -0.5383415978      4.1500363982
 H     -1.9852452218      0.2429954124      0.3291472470
 H      0.1817405257      1.7693228457     -2.8957723787
 H      1.3237185036      3.6110485212     -1.8246530687
60
# ORCA AIMD Position Step 2, t=1.00 fs, E_Pot=-1207.42956379 Hartree, Unit is Angstrom
 C      0.5668231964     -1.6667251110     -5.9343523371
 C      0.8220057582     -2.0619266261     -4.4744224289
 O      0.3702757461     -0.9988795379     -3.6306476344
 C      0.0154178150     -3.3338596979     -4.1291032825
 C      2.3529948894     -2.2007685084     -4.1060672265
 C      2.8785041756     -3.6350864759     -4.0388212794
 C      3.2836581901     -1.3629043743     -4.9914528564
 O      2.4068453373     -1.6333558440     -2.7661597440
 B      1.2657336342     -0.8387510482     -2.6084133467
 C      1.0412132019      0.1117967758     -1.4070340931
 C      2.0870685007      0.1496482430     -0.3859281768
 C      2.1189306469      0.8907224496      0.7662726058
 H      3.1019403376      0.9461688939      1.3207524677
 C      1.0097023960      1.8419941874      1.2041997216
 H      1.2643025643      2.2381589173      2.2308276171
 C     -0.3736558462      1.2341614968      1.2805163264
 B     -1.1417674355      1.1994862348      2.6384561766
 O     -0.6559807156      1.7687701511      3.7903755875
 C     -1.5249535029      1.3755525142      4.9030966053
 C     -1.6803879042      2.5493323471      5.8353211068
 C     -0.8393547256      0.1953010805      5.6150974804
 C     -2.8599658337      0.9185086683      4.1438998884
 C     -3.8716392511      2.0619933141      3.9972804261
 C     -3.5313297367     -0.3107355584      4.7362495445
 O     -2.3740246184      0.5899739845      2.8091030927
 C     -0.9750236556      0.6872467754      0.2053284602
 C     -0.4178752485      0.5535965130     -1.1580470142
 H     -1.0933524649      0.0637945241     -1.8596366471
 C      0.3687941079      1.6518562812     -1.8101653743
 C      0.9625884803      2.8195256765     -1.1508546351
 C      1.2600581469      2.9184410158      0.1711938824
 H      1.9172472463      3.7748284664      0.4671399610
 H     -0.5096036793     -1.5692762457     -6.1442728466
 H      0.9610924664     -2.3631023139     -6.6267130219
 H      1.0186773494     -0.6889476052     -6.1321218530
 H     -1.0879427481     -3.1038167190     -4.2249387100
 H      0.1528142450     -3.6465874312     -3.1288275146
 H      0.2324265890     -4.1915995172     -4.8105262297
 H      2.8244889211     -4.1551143502     -5.0191975262
 H      2.3671803388     -4.2387338897     -3.2645782989
 H      3.9187048736     -3.6461235346     -3.7372902472
 H      3.3395667923     -1.7795908018     -6.0153766576
 H      4.2730771110     -1.3558278745     -4.5481625832
 H      2.8824716640     -0.2919363471     -5.0418804379
 H      3.0079015100     -0.3865194774     -0.6410744778
 H     -0.7296008704      2.7969493991      6.3037925061
 H     -2.3900777618      2.3103250058      6.6393701762
 H     -2.0330566273      3.4147682427      5.3105191636
 H      0.2026617383      0.5060739545      5.9393305999
 H     -0.6900289210     -0.6952126486      4.9457401867
 H     -1.4222880951     -0.1489692115      6.5042129959
 H     -4.3252264491      2.2952117124      4.9598151547
 H     -4.6888566968      1.7199059820      3.3249367099
 H     -3.3999026943      2.9606702608      3.5607353844
 H     -3.8451620938     -0.1587027641      5.7739628325
 H     -2.8662021622     -1.1984983465      4.6616200703
 H     -4.4683300596     -0.5252424365      4.1509796762
 H     -1.9878817538      0.2533955903      0.3206726637
 H      0.1852771783      1.7695189756     -2.9026008307
 H      1.3237034192      3.6188474358     -1.8196720856
60
# ORCA AIMD Position Step 3, t=1.50 fs, E_Pot=-1207.41788384 Hartree, Unit is Angstrom
 C      0.5707857318     -1.6658836676     -5.9320605951
 C      0.8215082800     -2.0533429843     -4.4660707594
 O      0.3744961172     -0.9983718301     -3.6302737231
 C      0.0209210713     -3.3379999645     -4.1259352318
 C      2.3495834435     -2.1969146009     -4.1079789487
 C      2.8752623996     -3.6311840928     -4.0403374894
 C      3.2855152220     -1.3645602896     -4.9929961784
 O      2.4100002971     -1.6347604984     -2.7666419795
 B      1.2615385159     -0.8365066442     -2.6083158024
 C      1.0429655753      0.1053490124     -1.4086180343
 C      2.0896767655      0.1491582454     -0.3892268005
 C      2.1205692693      0.8883657305      0.7673345451
 H      3.1147369885      0.9386697271      1.3215712986
 C      1.0055107644      1.8422333554      1.2025615257
 H      1.2645272837      2.2349129423      2.2383257726
 C     -0.3709945965      1.2322877421      1.2800168690
 B     -1.1404122133      1.1988962169      2.6391173533
 O     -0.6566860559      1.7718249719      3.7857192145
 C     -1.5254886717      1.3829027045      4.9076862394
 C     -1.6780662886      2.5490826448      5.8341709067
 C     -0.8436472478      0.1924297526      5.6133689083
 C     -2.8625965221      0.9184947295      4.1442512353
 C     -3.8702073667      2.0654099832      3.9964650963
 C     -3.5287155656     -0.3076911253      4.7392722131
 O     -2.3730619056      0.5885928763      2.8079915299
 C     -0.9737530953      0.6954593405      0.2070741149
 C     -0.4187822660      0.5527648350     -1.1583305615
 H     -1.0934062207      0.0628590480     -1.8516036350
 C      0.3651576491      1.6537926631     -1.8100238810
 C      0.9649382997      2.8252907478     -1.1481433233
 C      1.2571097061      2.9199066298      0.1719619593
 H      1.9164910087      3.7847489391      0.4579817996
 H     -0.4964871691     -1.5587507866     -6.1624143872
 H      0.9601582555     -2.3419411658     -6.6150218965
 H      1.0259610639     -0.6937812594     -6.1177746722
 H     -1.0917657636     -3.1086039417     -4.2101607441
 H      0.1446407809     -3.6527573099     -3.1466293231
 H      0.2232719977     -4.1955628513     -4.8152061237
 H      2.8426114872     -4.1580463773     -5.0174456690
 H      2.3777224466     -4.2356323598     -3.2589177320
 H      3.8996692282     -3.6488523953     -3.7254440301
 H      3.3359589440     -1.7860699654     -6.0127563114
 H      4.2611208770     -1.3582739518     -4.5459669917
 H      2.8622538648     -0.2866948309     -5.0388926986
 H      3.0119845488     -0.3785602703     -0.6379776188
 H     -0.7399890467      2.8003641124      6.3039672372
 H     -2.3814303812      2.3044739705      6.6340757915
 H     -2.0342813714      3.3984127192      5.3159703348
 H      0.2128459218      0.4936041968      5.9337153071
 H     -0.6862543241     -0.7036348288      4.9445502150
 H     -1.4303039425     -0.1618464534      6.4990443403
 H     -4.3214684274      2.2835893401      4.9533757939
 H     -4.6906850401      1.7160006136      3.3318124861
 H     -3.3951534712      2.9576436866      3.5572536408
 H     -3.8494615110     -0.1655322608      5.7686399534
 H     -2.8621319465     -1.1941557467      4.6481631124
 H     -4.4737920216     -0.5118333636      4.1530259693
 H     -1.9889975158      0.2645145743      0.3123743299
 H      0.1893584684      1.7691515254     -2.9071399875
 H      1.3231497846      3.6255089804     -1.8138990327
60
# ORCA AIMD Position Step 4, t=2.00 fs, E_Pot=-1207.40512640 Hartree, Unit is Angstrom
 C      0.5745995246     -1.6647140197     -5.9294355549
 C      0.8209907512     -2.0449591618     -4.4578737474
 O      0.3787002039     -0.9978439351     -3.6298912143
 C      0.0261231909     -3.3419833234     -4.1232365680
 C      2.3462179491     -2.1930841816     -4.1098264303
 C      2.8718695973     -3.6273670914     -4.0418558375
 C      3.2870161395     -1.3659637674     -4.9946031419
 O      2.4130130983     -1.6360867492     -2.7671802173
 B      1.2575889323     -0.8343852088     -2.6082281787
 C      1.0446389581      0.0990801695     -1.4101306939
 C      2.0922843071      0.1488119330     -0.3923409012
 C      2.1223629532      0.8859006434      0.7683141415
 H      3.1239589795      0.9307801162      1.3208872129
 C      1.0015541122      1.8425170178      1.2011070262
 H      1.2640110842      2.2307426080      2.2427017948
 C     -0.3683968156      1.2304043981      1.2794800399
 B     -1.1391140944      1.1982801153      2.6397772388
 O     -0.6574668200      1.7748616003      3.7811353562
 C     -1.5259792451      1.3900425245      4.9120677338
 C     -1.6757616253      2.5486631920      5.8331315927
 C     -0.8477360517      0.1894610119      5.6116600933
 C     -2.8651107352      0.9185916680      4.1445828267
 C     -3.8687652766      2.0687052507      3.9954882603
 C     -3.5262093180     -0.3047595525      4.7420772182
 O     -2.3720583143      0.5872575384      2.8069804749
 C     -0.9725435376      0.7036142963      0.2087976442
 C     -0.4195468632      0.5520255750     -1.1585825748
 H     -1.0935029592      0.0620068431     -1.8434662586
 C      0.3615875218      1.6557080569     -1.8099813581
 C      0.9672473727      2.8309423502     -1.1454236177
 C      1.2542311358      2.9215432415      0.1726724790
 H      1.9135982551      3.7926347931      0.4487073506
 H     -0.4830895498     -1.5484070429     -6.1798195676
 H      0.9614104304     -2.3243528444     -6.6061536061
 H      1.0332786309     -0.6985402309     -6.1035790850
 H     -1.0924779862     -3.1137374358     -4.1955725243
 H      0.1378004251     -3.6604061304     -3.1596394492
 H      0.2141363573     -4.1976415226     -4.8187656932
 H      2.8602664961     -4.1601505983     -5.0144570568
 H      2.3879145121     -4.2317980675     -3.2545949190
 H      3.8824621758     -3.6507477566     -3.7134212197
 H      3.3323897191     -1.7919029199     -6.0091870720
 H      4.2503645745     -1.3604709946     -4.5433225158
 H      2.8441982839     -0.2853405233     -5.0360117524
 H      3.0154472377     -0.3705493050     -0.6350075544
 H     -0.7493577502      2.8038577494      6.3043557714
 H     -2.3728415868      2.2986076191      6.6287398094
 H     -2.0364929812      3.3843691963      5.3201330126
 H      0.2195003273      0.4804679903      5.9275320793
 H     -0.6833033186     -0.7096656307      4.9444595089
 H     -1.4370551254     -0.1737693013      6.4923491539
 H     -4.3178525655      2.2726657434      4.9477233776
 H     -4.6912084780      1.7127816633      3.3393203181
 H     -3.3910314349      2.9539451482      3.5542496985
 H     -3.8533193401     -0.1721840018      5.7637288351
 H     -2.8593699000     -1.1884150417      4.6350758768
 H     -4.4768767893     -0.4981783182      4.1562826499
 H     -1.9885919217      0.2763910881      0.3043792655
 H      0.1939751905      1.7682304809     -2.9091610212
 H      1.3221121267      3.6311131410     -1.8074326901
60
# ORCA AIMD Position Step 5, t=2.50 fs, E_Pot=-1207.39395238 Hartree, Unit is Angstrom
 C      0.5782313164     -1.6631340125     -5.9263638139
 C      0.8204478398     -2.0368398400     -4.4498795227
 O      0.3828625122     -0.9972671178     -3.6294939534
 C      0.0309769667     -3.3457532147     -4.1211210482
 C      2.3429163052     -2.1892860642     -4.1115984807
 C      2.8682810541     -3.6236320267     -4.0433836114
 C      3.2880560839     -1.3670791863     -4.9962804404
 O      2.4158667568     -1.6373187990     -2.7677734423
 B      1.2539550993     -0.8324177265     -2.6081382324
 C      1.0462162799      0.0930122804     -1.4115445666
 C      2.0948764684      0.1486300061     -0.3952489499
 C      2.1243212080      0.8833200990      0.7692009894
 H      3.1292751401      0.9225663746      1.3185901757
 C      0.9978821159      1.8428442909      1.1998627251
 H      1.2626645807      2.2256285812      2.2436882610
 C     -0.3658625183      1.2285268561      1.2789442746
 B     -1.1378809790      1.1976286213      2.6404196199
 O     -0.6583236377      1.7778961055      3.7766406208
 C     -1.5264107337      1.3969116390      4.9161884825
 C     -1.6734730435      2.5480212867      5.8322228880
 C     -0.8515924125      0.1863825608      5.6099610998
 C     -2.8674833369      0.9188345839      4.1448943104
 C     -3.8672949710      2.0718346865      3.9943164420
 C     -3.5238243702     -0.3019423718      4.7446083472
 O     -2.3710142737      0.5859642056      2.8060800042
 C     -0.9714084866      0.7116986383      0.2104460868
 C     -0.4201247863      0.5514119961     -1.1587734388
 H     -1.0939287973      0.0610462473     -1.8355299664
 C      0.3580931771      1.6576205951     -1.8100360555
 C      0.9694807318      2.8364401708     -1.1427198540
 C      1.2514313897      2.9233748577      0.1733475348
 H      1.9084795623      3.7983231720      0.4394736242
 H     -0.4697620451     -1.5382222681     -6.1963962402
 H      0.9656417628     -2.3115304797     -6.6011659498
 H      1.0408356219     -0.7027690134     -6.0896451637
 H     -1.0898564964     -3.1191911951     -4.1812777934
 H      0.1326608616     -3.6701220455     -3.1662396482
 H      0.2051387209     -4.1977521833     -4.8212289212
 H      2.8773171978     -4.1614490019     -5.0103231286
 H      2.3974081170     -4.2273272647     -3.2516266196
 H      3.8679584773     -3.6515959227     -3.7010215503
 H      3.3289235656     -1.7970990819     -6.0048939751
 H      4.2415449410     -1.3623377176     -4.5399276589
 H      2.8286973995     -0.2882430660     -5.0333231905
 H      3.0185689701     -0.3627023439     -0.6323290842
 H     -0.7570261304      2.8076055875      6.3052178393
 H     -2.3646430165      2.2926216760      6.6237123737
 H     -2.0401194074      3.3736096802      5.3224643300
 H      0.2222524110      0.4666605646      5.9208279016
 H     -0.6813426388     -0.7131254449      4.9454112736
 H     -1.4424840648     -0.1846506115      6.4841504510
 H     -4.3146047013      2.2627313043      4.9434603122
 H     -4.6904761527      1.7102992778      3.3472962576
 H     -3.3875103562      2.9498136919      3.5516638258
 H     -3.8567375378     -0.1785791807      5.7597773670
 H     -2.8579703983     -1.1813355053      4.6224272686
 H     -4.4774390141     -0.4843616873      4.1607734413
 H     -1.9867710706      0.2890247028      0.2968141200
 H      0.1990929698      1.7667835666     -2.9086111321
 H      1.3206722005      3.6358137285     -1.8004264821
60
# ORCA AIMD Position Step 6, t=3.00 fs, E_Pot=-1207.38626210 Hartree, Unit is Angstrom
 C      0.5816694644     -1.6611002076     -5.9227717954
 C      0.8198771046     -2.0290523957     -4.4421370279
 O      0.3869561893     -0.9966103355     -3.6290744831
 C      0.0354572278     -3.3492661544     -4.1196344511
 C      2.3396968258     -2.1855301670     -4.1132841405
 C      2.8644720690     -3.6199681453     -4.0449229967
 C      3.2885518234     -1.3678857448     -4.9980238182
 O      2.4185456009     -1.6384416913     -2.7684209553
 B      1.2507047745     -0.8306329512     -2.6080324231
 C      1.0476815776      0.0871677341     -1.4128312555
 C      2.0974364301      0.1486321402     -0.3979317891
 C      2.1264370547      0.8806176559      0.7699772267
 H      3.1305550396      0.9141009640      1.3146816945
 C      0.9945397837      1.8432084619      1.1988386917
 H      1.2604505253      2.2196208210      2.2412046369
 C     -0.3633907122      1.2266707390      1.2784486152
 B     -1.1367202006      1.1969327214      2.6410276635
 O     -0.6592568314      1.7809445423      3.7722513383
 C     -1.5267687741      1.4034484422      4.9199953199
 C     -1.6712012020      2.5471312257      5.8314553436
 C     -0.8551998819      0.1831922657      5.6082569139
 C     -2.8696888159      0.9192581323      4.1451860392
 C     -3.8657790827      2.0747563474      3.9929320852
 C     -3.5215693730     -0.2992299230      4.7468225526
 O     -2.3699303673      0.5847090938      2.8053000167
 C     -0.9703534486      0.7197028660      0.2119656247
 C     -0.4204739431      0.5509562718     -1.1588748984
 H     -1.0949504603      0.0597979112     -1.8280795925
 C      0.3546863220      1.6595458273     -1.8101726723
 C      0.9716017873      2.8417397836     -1.1400518838
 C      1.2487099502      2.9254124237      0.1740062444
 H      1.9011518870      3.8017976412      0.4304811539
 H     -0.4568453504     -1.5281722036     -6.2120719499
 H      0.9733729766     -2.3041797793     -6.6006494110
 H      1.0488332064     -0.7060379502     -6.0760751292
 H     -1.0838658616     -3.1249013424     -4.1673837266
 H      0.1294791104     -3.6822732022     -3.1655364754
 H      0.1964211288     -4.1959186252     -4.8227013331
 H      2.8936424159     -4.1619970901     -5.0052019627
 H      2.4058367629     -4.2223578917     -3.2499708795
 H      3.8568004445     -3.6511918225     -3.6880967205
 H      3.3256287738     -1.8017035595     -6.0001576975
 H      4.2352293840     -1.3638058223     -4.5355481872
 H      2.8160515867     -0.2955414979     -5.0309195328
 H      3.0216416767     -0.3552364434     -0.6301041174
 H     -0.7624215952      2.8117682978      6.3067658249
 H     -2.3571560078      2.2864127229      6.6193379607
 H     -2.0454759263      3.3668164144      5.3226025106
 H      0.2209240203      0.4522360707      5.9137025562
 H     -0.6805131664     -0.7139712520      4.9472502698
 H     -1.4466087148     -0.1944464839      6.4745700793
 H     -4.3118987283      2.2540374608      4.9410780966
 H     -4.6886159595      1.7085663111      3.3555198868
 H     -3.3845311765      2.9455357687      3.5494108254
 H     -3.8597061953     -0.1846518508      5.7572688503
 H     -2.8579106548     -1.1730696862      4.6102743539
 H     -4.4754773830     -0.4704935362      4.1664379822
 H     -1.9837432072      0.3023713910      0.2898073817
 H      0.2046542505      1.7648546515     -2.9056037273
 H      1.3189354103      3.6398254336     -1.7930839226
60
# ORCA AIMD Position Step 7, t=3.50 fs, E_Pot=-1207.38233851 Hartree, Unit is Angstrom
 C      0.5849296062     -1.6586199012     -5.9186454478
 C      0.8192792468     -2.0216724831     -4.4347019719
 O      0.3909497544     -0.9958413066     -3.6286245256
 C      0.0395575333     -3.3524965815     -4.1187374061
 C      2.3365809405     -2.1818310559     -4.1148712950
 C      2.8604471771     -3.6163617487     -4.0464663804
 C      3.2884493504     -1.3683762765     -4.9998142883
 O      2.4210329803     -1.6394403805     -2.7691217778
 B      1.2479056224     -0.8290586938     -2.6078959324
 C      1.0490190450      0.0815737766     -1.4139603968
 C      2.0999451950      0.1488355694     -0.4003714269
 C      2.1286849579      0.8777900684      0.7706171471
 H      3.1278743450      0.9054679803      1.3092795424
 C      0.9915696378      1.8435968380      1.1980293248
 H      1.2573893901      2.2128432900      2.2353661763
 C     -0.3609817357      1.2248528534      1.2780319393
 B     -1.1356394738      1.1961844229      2.6415838038
 O     -0.6602655520      1.7840201386      3.7679871409
 C     -1.5270389447      1.4095856235      4.9234320485
 C     -1.6689521086      2.5460051824      5.8308299452
 C     -0.8585515891      0.1799016402      5.6065293328
 C     -2.8716996745      0.9198957814      4.1454588300
 C     -3.8642044962      2.0774305136      3.9913387974
 C     -3.5194513852     -0.2966039558      4.7486924494
 O     -2.3688082520      0.5834894219      2.8046508303
 C     -0.9693771260      0.7276142504      0.2133017084
 C     -0.4205567042      0.5506879668     -1.1588626277
 H     -1.0967847797      0.0581172380     -1.8213574430
 C      0.3513834336      1.6614953906     -1.8103621927
 C      0.9735713150      2.8467893105     -1.1374381782
 C      1.2460589704      2.9276514598      0.1746639754
 H      1.8917475364      3.8031913344      0.4219790275
 H     -0.4446552353     -1.5182445071     -6.2267766818
 H      0.9847320059     -2.3023654321     -6.6045476322
 H      1.0574443645     -0.7079773036     -6.0629707375
 H     -1.0746633849     -3.1307623524     -4.1540047239
 H      0.1283968344     -3.6969019825     -3.1575863007
 H      0.1881530998     -4.1922754122     -4.8233718694
 H      2.9091269239     -4.1618799008     -4.9993157214
 H      2.4128229461     -4.2170656127     -3.2495367881
 H      3.8493214968     -3.6493397979     -3.6745989444
 H      3.3225791852     -1.8057881061     -5.9953021253
 H      4.2317360663     -1.3648199297     -4.5300666436
 H      2.8064736039     -0.3071445685     -5.0289015594
 H      3.0249396361     -0.3483602949     -0.6284859733
 H     -0.7651431265      2.8164675577      6.3091279688
 H     -2.3506698035      2.2798949537      6.6159283886
 H     -2.0526965275      3.3642695504      5.3204427834
 H      0.2155384635      0.4373161661      5.9063140328
 H     -0.6809281947     -0.7123004356      4.9497186524
 H     -1.4495202484     -0.2031501120      6.4638354054
 H     -4.3098299106      2.2467937478      4.9408951205
 H     -4.6858315866      1.7075608900      3.3637154562
 H     -3.3820121994      2.9414322342      3.5473884302
 H     -3.8621839747     -0.1903483878      5.7565746753
 H     -2.8590918444     -1.1638685455      4.5986680513
 H     -4.4711392238     -0.4567171004      4.1731286219
 H     -1.9798146884      0.3163361550      0.2834906257
 H      0.2105768980      1.7625044216     -2.9004235343
 H      1.3170249597      3.6434053758     -1.7856525259
60
# ORCA AIMD Position Step 8, t=4.00 fs, E_Pot=-1207.38075814 Hartree, Unit is Angstrom
 C      0.5880548928     -1.6557497387     -5.9140353752
 C      0.8186584556     -2.0147858012     -4.4276391054
 O      0.3948057126     -0.9949274342     -3.6281351350
 C      0.0432880664     -3.3554372638     -4.1183070893
 C      2.3335940552     -2.1782095623     -4.1163461347
 C      2.8562445986     -3.6127990769     -4.0479930869
 C      3.2877306204     -1.3685587878     -5.0016163605
 O      2.4233103014     -1.6402992862     -2.7698740953
 B      1.2456254385     -0.8277224588     -2.6077133014
 C      1.0502128414      0.0762647041     -1.4148998952
 C      2.1023830076      0.1492530054     -0.4025508504
 C      2.1310186876      0.8748395145      0.7710871411
 H      3.1215341275      0.8967652923      1.3026263252
 C      0.9890119253      1.8439902573      1.1974123223
 H      1.2535661333      2.2054988395      2.2265029868
 C     -0.3586383315      1.2230921458      1.2777325532
 B     -1.1346468736      1.1953775270      2.6420695712
 O     -0.6613472798      1.7871316283      3.7638727183
 C     -1.5272070614      1.4152487719      4.9264386175
 C     -1.6667390312      2.5446977624      5.8303400004
 C     -0.8616503379      0.1765378865      5.6047582498
 C     -2.8734855729      0.9207787389      4.1457140465
 C     -3.8625646354      2.0798206501      3.9895645889
 C     -3.5174772355     -0.2940391781      4.7502094986
 O     -2.3676514091      0.5823039402      2.8041431175
 C     -0.9684722248      0.7354130754      0.2144001718
 C     -0.4203432396      0.5506316777     -1.1587188481
 H     -1.0995685562      0.0559163704     -1.8155401341
 C      0.3482070216      1.6634761044     -1.8105621455
 C      0.9753476592      2.8515295008     -1.1348976526
 C      1.2434644099      2.9300701826      0.1753323433
 H      1.8805226374      3.8027929710      0.4142627122