60
# ORCA AIMD Force Step 0, t=0.00 fs, E_Pot=-1207.44092332 Hartree, Unit is Hartree/Angstrom
 C      0.0000000000      0.0000000000      0.0000000000
 C      0.0000000000      0.0000000000      0.0000000000
 O      0.0000000000      0.0000000000      0.0000000000
 C      0.0000000000      0.0000000000      0.0000000000
 C      0.0000000000      0.0000000000      0.0000000000
 C      0.0000000000      0.0000000000      0.0000000000
 C      0.0000000000      0.0000000000      0.0000000000
 O      0.0000000000      0.0000000000      0.0000000000
 B      0.0000000000      0.0000000000      0.0000000000
 C      0.0000000000      0.0000000000      0.0000000000
 C      0.0000000000      0.0000000000      0.0000000000
 C      0.0000000000      0.0000000000      0.0000000000
 H      0.0000000000      0.0000000000      0.0000000000
 C      0.0000000000      0.0000000000      0.0000000000
 H      0.0000000000      0.0000000000      0.0000000000
 C      0.0000000000      0.0000000000      0.0000000000
 B      0.0000000000      0.0000000000      0.0000000000
 O      0.0000000000      0.0000000000      0.0000000000
 C      0.0000000000      0.0000000000      0.0000000000
 C      0.0000000000      0.0000000000      0.0000000000
 C      0.0000000000      0.0000000000      0.0000000000
 C      0.0000000000      0.0000000000      0.0000000000
 C      0.0000000000      0.0000000000      0.0000000000
 C      0.0000000000      0.0000000000      0.0000000000
 O      0.0000000000      0.0000000000      0.0000000000
 C      0.0000000000      0.0000000000      0.0000000000
 C      0.0000000000      0.0000000000      0.0000000000
 H      0.0000000000      0.0000000000      0.0000000000
 C      0.0000000000      0.0000000000      0.0000000000
 C      0.0000000000      0.0000000000      0.0000000000
 C      0.0000000000      0.0000000000      0.0000000000
 H      0.0000000000      0.0000000000      0.0000000000
 H      0.0000000000      0.0000000000      0.0000000000
 H      0.0000000000      0.0000000000      0.0000000000
 H      0.0000000000      0.0000000000      0.0000000000
 H      0.0000000000      0.0000000000      0.0000000000
 H      0.0000000000      0.0000000000      0.0000000000
 H      0.0000000000      0.0000000000      0.0000000000
 H      0.0000000000      0.0000000000      0.0000000000
 H      0.0000000000      0.0000000000      0.0000000000
 H      0.0000000000      0.0000000000      0.0000000000
 H      0.0000000000      0.0000000000      0.0000000000
 H      0.0000000000      0.0000000000      0.0000000000
 H      0.0000000000      0.0000000000      0.0000000000
 H      0.0000000000      0.0000000000      0.0000000000
 H      0.0000000000      0.0000000000      0.0000000000
 H      0.0000000000      0.0000000000      0.0000000000
 H      0.0000000000      0.0000000000      0.0000000000
 H      0.0000000000      0.0000000000      0.0000000000
 H      0.0000000000      0.0000000000      0.0000000000
 H      0.0000000000      0.0000000000      0.0000000000
 H      0.0000000000      0.0000000000      0.0000000000
 H      0.0000000000      0.0000000000      0.0000000000
 H      0.0000000000      0.0000000000      0.0000000000
 H      0.0000000000      0.0000000000      0.0000000000
 H      0.0000000000      0.0000000000      0.0000000000
 H      0.0000000000      0.0000000000      0.0000000000
 H      0.0000000000      0.0000000000      0.0000000000
 H      0.0000000000      0.0000000000      0.0000000000
 H      0.0000000000      0.0000000000      0.0000000000
60
# ORCA AIMD Force Step 1, t=0.50 fs, E_Pot=-1207.43776967 Hartree, Unit is Hartree/Angstrom
 C     -0.0103986103      0.0212789650      0.0141132668
 C     -0.0003717423     -0.0117929306     -0.0086982251
 O      0.0092067412     -0.0071407888      0.0000107606
 C     -0.0255315380      0.0065553403     -0.0272785680
 C      0.0010492630     -0.0001685046      0.0069522279
 C     -0.0069638527     -0.0112121688      0.0020566177
 C     -0.0200985924      0.0228545997     -0.0056188204
 O     -0.0237771172      0.0099304764     -0.0145936575
 B      0.0147864109     -0.0081353196     -0.0049318318
 C     -0.0070289597      0.0226614655      0.0030064689
 C      0.0036311284      0.0187594679      0.0238244172
 C      0.0161267723     -0.0178723181     -0.0152551951
 H     -0.0348261840     -0.0077848268     -0.0142104927
 C      0.0208938115      0.0051927165      0.0142405956
 H     -0.0063151140     -0.0102730722     -0.0308254222
 C     -0.0101153519     -0.0077946624     -0.0202643176
 B     -0.0061592188     -0.0013464410      0.0049227370
 O     -0.0180345657     -0.0108740748      0.0073268078
 C      0.0026565811     -0.0148397980     -0.0174773852
 C     -0.0020932572     -0.0061057490      0.0096565527
 C      0.0185108858     -0.0093578615      0.0037188434
 C      0.0112135114      0.0072229843     -0.0031107722
 C     -0.0029141696     -0.0049052771     -0.0122467139
 C     -0.0104035120     -0.0131960734     -0.0139597599
 O      0.0104890858      0.0123545458      0.0189038919
 C     -0.0015203404     -0.0013048530      0.0147101473
 C      0.0098863976      0.0050019863     -0.0041515375
 H      0.0074437672      0.0065610066      0.0105668579
 C      0.0087943495     -0.0112969063     -0.0113914641
 C      0.0050034499     -0.0067873775      0.0138909079
 C      0.0034787485      0.0160950402     -0.0200453142
 H     -0.0252166506     -0.0194345083     -0.0046386874
 H      0.0145879450     -0.0028858350      0.0069618990
 H      0.0056247522     -0.0096903571     -0.0040538659
 H     -0.0049683383     -0.0121743700      0.0015377922
 H      0.0317756019     -0.0043463327      0.0000135828
 H      0.0058126907     -0.0022294871      0.0113774606
 H     -0.0024584770      0.0216260068      0.0143813031
 H     -0.0020335234      0.0117153527      0.0186184372
 H      0.0041014520      0.0120430352     -0.0168689038
 H     -0.0035602024      0.0057509823     -0.0032112324
 H     -0.0012611940      0.0082658007      0.0183831863
 H     -0.0067534270      0.0008035627     -0.0026774846
 H      0.0164760974     -0.0361961450      0.0006551316
 H     -0.0160783338      0.0067890637      0.0029469625
 H     -0.0066027840     -0.0037099701     -0.0048901247
 H      0.0086464613      0.0023212289     -0.0103603746
 H     -0.0009387079      0.0004973086     -0.0000944686
 H     -0.0333257135     -0.0073015073     -0.0076635004
 H     -0.0063006383      0.0247870785      0.0141122819
 H      0.0140390238      0.0097836165     -0.0196980178
 H      0.0054126610      0.0004927200     -0.0077456667
 H      0.0178459116      0.0072225928      0.0120735696
 H     -0.0085838884     -0.0150048712      0.0077276546
 H      0.0063231828     -0.0001486640     -0.0108215599
 H     -0.0148948508      0.0192151905      0.0029167385
 H      0.0253593587      0.0052936609      0.0139231930
 H      0.0218455337      0.0098787213      0.0008417045
 H      0.0081445153     -0.0085533749      0.0293805264
 H     -0.0086264785     -0.0175248036      0.0128316625
60
# ORCA AIMD Force Step 2, t=1.00 fs, E_Pot=-1207.42956379 Hartree, Unit is Hartree/Angstrom
 C     -0.0204266759      0.0409315479      0.0362707854
 C     -0.0020465547     -0.0275825289     -0.0220827070
 O      0.0004116843     -0.0016050720      0.0008099135
 C     -0.0443157805      0.0188564196     -0.0588640201
 C      0.0061888477     -0.0038390254      0.0103322578
 C     -0.0163452429     -0.0158388761      0.0016253590
 C     -0.0440711985      0.0370555582     -0.0085063867
 O     -0.0313303128      0.0155482475     -0.0138647785
 B      0.0296111303     -0.0154459475     -0.0035536083
 C     -0.0115706824      0.0304379933      0.0085416459
 C      0.0011841092      0.0226820871      0.0305346596
 C      0.0231594080     -0.0177871358     -0.0147846645
 H     -0.0470628842     -0.0067440477     -0.0196949346
 C      0.0341654961      0.0071150107      0.0260921319
 H     -0.0092499620     -0.0127386342     -0.0411947870
 C     -0.0120856811     -0.0039941957     -0.0134834362
 B     -0.0082549539     -0.0025820616      0.0019949325
 O     -0.0178999461     -0.0094306719      0.0151990132
 C      0.0056034957     -0.0293760693     -0.0297228650
 C     -0.0037894382     -0.0186168989      0.0159571335
 C      0.0308513701     -0.0131098436      0.0048756422
 C      0.0173667945      0.0138396125     -0.0035578198
 C     -0.0015405380     -0.0148643731     -0.0211927023
 C     -0.0168940963     -0.0192218908     -0.0286888822
 O      0.0096994763      0.0125243322      0.0223922349
 C     -0.0075034735     -0.0096347167      0.0049718071
 C      0.0179994666      0.0110598311      0.0007265202
 H      0.0036107390      0.0041350409      0.0060199340
 C      0.0118224605     -0.0080534507     -0.0160398250
 C     -0.0019451307     -0.0156270378      0.0063766753
 C      0.0102469996      0.0242226485     -0.0153757077
 H     -0.0298978327     -0.0268719800     -0.0033230737
 H      0.0094132429     -0.0033023859      0.0099868172
 H      0.0195010334     -0.0330930992     -0.0239260705
 H     -0.0027276393     -0.0058081389     -0.0008722371
 H      0.0415197367     -0.0050150471     -0.0018130734
 H      0.0137695288     -0.0121185646      0.0433946623
 H     -0.0009583204      0.0262155652      0.0165400791
 H     -0.0053027560      0.0126202724      0.0193517697
 H     -0.0006745063      0.0119892282     -0.0194912587
 H      0.0130338214      0.0094589917     -0.0008460649
 H     -0.0002413600      0.0096174436      0.0169477812
 H      0.0062151113      0.0024520176      0.0019045770
 H      0.0262668776     -0.0502987147     -0.0005214115
 H     -0.0133009744      0.0036480254      0.0004211366
 H      0.0045458180     -0.0015647590     -0.0010494715
 H      0.0039822440      0.0014251786     -0.0058168291
 H     -0.0077962443      0.0184629090     -0.0100590534
 H     -0.0455846068     -0.0088531489     -0.0084255506
 H     -0.0097760030      0.0319794066      0.0162060822
 H      0.0175085070      0.0129355808     -0.0220558555
 H      0.0015717731      0.0061061336      0.0022196012
 H      0.0196817009      0.0093223581      0.0111909633
 H     -0.0095986772     -0.0131041268      0.0079228959
 H      0.0068570653      0.0015576423     -0.0022684680
 H     -0.0182138787      0.0208993491      0.0048091774
 H      0.0322611483      0.0043353114      0.0168912537
 H      0.0234145834      0.0106945343      0.0029749708
 H      0.0082421777     -0.0086521949      0.0353386894
 H     -0.0082614537     -0.0176979734      0.0119918467
60
# ORCA AIMD Force Step 3, t=1.50 fs, E_Pot=-1207.41788384 Hartree, Unit is Hartree/Angstrom
 C     -0.0304424734      0.0592242583      0.0589516562
 C     -0.0032482229     -0.0435996510     -0.0351618754
 O     -0.0086218026      0.0043486698      0.0016778860
 C     -0.0595434293      0.0320805810     -0.0883253808
 C      0.0112183926     -0.0074840625      0.0133139493
 C     -0.0248855473     -0.0188244738      0.0008669155
 C     -0.0665575282      0.0474619149     -0.0103396153
 O     -0.0380570431      0.0206188672     -0.0130868826
 B      0.0434768606     -0.0218810754     -0.0017029494
 C     -0.0158748119      0.0380129799      0.0143276671
 C     -0.0022948513      0.0266396595      0.0364245660
 C      0.0269516221     -0.0178310862     -0.0159143518
 H     -0.0556624158     -0.0054606260     -0.0230850751
 C      0.0463771246      0.0079252417      0.0348968072
 H     -0.0113681988     -0.0139373960     -0.0483599641
 C     -0.0137945582     -0.0001970406     -0.0064090084
 B     -0.0103945704     -0.0038457392     -0.0007055816
 O     -0.0175636432     -0.0077984488      0.0227783634
 C      0.0085857932     -0.0445032141     -0.0418069212
 C     -0.0050201732     -0.0307851848      0.0211988279
 C      0.0407532745     -0.0154042426      0.0050405109
 C      0.0234468802      0.0202550035     -0.0038982209
 C      0.0006759655     -0.0249980483     -0.0288109515
 C     -0.0218718538     -0.0231299300     -0.0422464016
 O      0.0088781147      0.0126565956      0.0256707911
 C     -0.0121910974     -0.0173279445     -0.0054870379
 C      0.0267545040      0.0175628509      0.0059924293
 H     -0.0006548527      0.0013410040      0.0010400820
 C      0.0151258549     -0.0054375544     -0.0181868736
 C     -0.0093877945     -0.0254970278     -0.0007157454
 C      0.0152014793      0.0300046389     -0.0111454162
 H     -0.0326836490     -0.0318653391     -0.0011444767
 H      0.0033944571     -0.0035167551      0.0125451723
 H      0.0335654053     -0.0562164112     -0.0440658207
 H      0.0000118268      0.0014806800     -0.0033211745
 H      0.0479304511     -0.0049725252     -0.0039357351
 H      0.0209950351     -0.0222313858      0.0746582707
 H      0.0009274354      0.0291531211      0.0174915836
 H     -0.0084251823      0.0128879064      0.0188279815
 H     -0.0060970645      0.0110117477     -0.0208913434
 H      0.0293428786      0.0129610039      0.0018814374
 H      0.0008428684      0.0103522710      0.0143568492
 H      0.0192177063      0.0039859962      0.0067251381
 H      0.0345370427     -0.0599256129     -0.0018442272
 H     -0.0097893061      0.0002391746     -0.0021582902
 H      0.0163435449      0.0009716597      0.0032637897
 H     -0.0014994416      0.0001724955     -0.0002689326
 H     -0.0150357946      0.0365632714     -0.0201219895
 H     -0.0547929250     -0.0093437406     -0.0083112875
 H     -0.0128819638      0.0372274401      0.0169260538
 H      0.0199353510      0.0155196047     -0.0230302314
 H     -0.0024397298      0.0115156243      0.0125058889
 H      0.0201213452      0.0107892552      0.0092060468
 H     -0.0099404217     -0.0100853971      0.0075632930
 H      0.0070653249      0.0031988811      0.0066795267
 H     -0.0203273659      0.0211199441      0.0066014513
 H      0.0368041055      0.0028357232      0.0184034825
 H      0.0233882750      0.0108333099      0.0052242539
 H      0.0079200165     -0.0084567499      0.0388992384
 H     -0.0073778082     -0.0166650951      0.0102210289
60
# ORCA AIMD Force Step 4, t=2.00 fs, E_Pot=-1207.40512640 Hartree, Unit is Hartree/Angstrom
 C     -0.0384842443      0.0731786143      0.0777784091
 C     -0.0039070125     -0.0598822659     -0.0483723448
 O     -0.0179365205      0.0109009642      0.0028731699
 C     -0.0707393045      0.0444563511     -0.1100586368
 C      0.0163223417     -0.0112181255      0.0163212912
 C     -0.0309616298     -0.0202475941      0.0003943568
 C     -0.0861210529      0.0544642582     -0.0105857293
 O     -0.0442271243      0.0253320715     -0.0123544595
 B      0.0567499896     -0.0279151299      0.0002713328
 C     -0.0198396971      0.0453552182      0.0201129956
 C     -0.0064318879      0.0304483862      0.0418950547
 C      0.0275045521     -0.0176172233     -0.0182705177
 H     -0.0608309116     -0.0040374889     -0.0245961450
 C      0.0573964143      0.0075552907      0.0403417356
 H     -0.0126422746     -0.0139502730     -0.0523667215
 C     -0.0151872727      0.0036781805      0.0009408770
 B     -0.0122904752     -0.0050351643     -0.0036982591
 O     -0.0170203593     -0.0061436478      0.0301366371
 C      0.0114533879     -0.0592824609     -0.0536288457
 C     -0.0061382851     -0.0399681385      0.0252554005
 C      0.0480622168     -0.0158688314      0.0041680683
 C      0.0293132389      0.0264759476     -0.0041268875
 C      0.0031369761     -0.0348152023     -0.0341849427
 C     -0.0255994481     -0.0249320438     -0.0538288849
 O      0.0079618772      0.0126746461      0.0287261020
 C     -0.0152651246     -0.0242193933     -0.0160860142
 C      0.0350934669      0.0239395517      0.0114978145
 H     -0.0050234917     -0.0015587244     -0.0040265345
 C      0.0187822289     -0.0031856721     -0.0177818299
 C     -0.0170150536     -0.0358972481     -0.0066903352
 C      0.0183744688      0.0332709622     -0.0074534671
 H     -0.0337161356     -0.0345393074      0.0017059937
 H     -0.0026371230     -0.0036398685      0.0147075059
 H      0.0454309533     -0.0749666562     -0.0604041378
 H      0.0028083866      0.0086669036     -0.0056607808
 H      0.0510845616     -0.0043001861     -0.0061934813
 H      0.0268186315     -0.0307306519      0.0995826281
 H      0.0031780603      0.0303506899      0.0171882345
 H     -0.0113067028      0.0125736537      0.0171728368
 H     -0.0118756673      0.0092900339     -0.0212270481
 H      0.0433670366      0.0162420265      0.0043615229
 H      0.0019936396      0.0104232080      0.0106572776
 H      0.0308845049      0.0053100092      0.0111710389
 H      0.0411918578     -0.0652823304     -0.0032796397
 H     -0.0056205271     -0.0034444993     -0.0048078251
 H      0.0271067004      0.0034809850      0.0071990711
 H     -0.0069728386     -0.0011445730      0.0053434432
 H     -0.0213865671      0.0518808489     -0.0285034768
 H     -0.0604774104     -0.0087348317     -0.0072478202
 H     -0.0154952664      0.0400369405      0.0159590177
 H      0.0210169232      0.0173263993     -0.0222200094
 H     -0.0060521083      0.0164083704      0.0219152734
 H      0.0192726412      0.0116443516      0.0062847257
 H     -0.0096751932     -0.0061911887      0.0067466874
 H      0.0071762655      0.0047017960      0.0152548589
 H     -0.0211676629      0.0198119998      0.0082386349
 H      0.0389517875      0.0008775251      0.0184999765
 H      0.0216041986      0.0101958030      0.0075107882
 H      0.0071264133     -0.0079375625      0.0395677228
 H     -0.0060330035     -0.0144778832      0.0075041403
60
# ORCA AIMD Force Step 5, t=2.50 fs, E_Pot=-1207.39395238 Hartree, Unit is Hartree/Angstrom
 C     -0.0423031884      0.0795295750      0.0887317143
 C     -0.0040095844     -0.0761833653     -0.0613519593
 O     -0.0274123242      0.0178949374      0.0043565978
 C     -0.0774172352      0.0540946996     -0.1185858188
 C      0.0213704548     -0.0150644607      0.0191676836
 C     -0.0331520259     -0.0202137791      0.0008549453
 C     -0.1010758349      0.0583854486     -0.0087686923
 O     -0.0497698938      0.0296542668     -0.0116270000
 B      0.0691799787     -0.0333712145      0.0024413459
 C     -0.0234551352      0.0524421830      0.0258968816
 C     -0.0108973900      0.0338559217      0.0466424968
 C      0.0248797681     -0.0171738942     -0.0218562736
 H     -0.0625228972     -0.0025050480     -0.0242411138
 C      0.0671394782      0.0060802146      0.0425103719
 H     -0.0130327601     -0.0128183632     -0.0531683363
 C     -0.0162985824      0.0075477368      0.0083409840
 B     -0.0140064337     -0.0061352131     -0.0067484183
 O     -0.0163000971     -0.0044758118      0.0372002175
 C      0.0142072887     -0.0738331863     -0.0651440852
 C     -0.0074937006     -0.0439216575      0.0274593478
 C      0.0527955740     -0.0143763064      0.0023559731
 C      0.0350292548      0.0324064283     -0.0042009503
 C      0.0054401240     -0.0438992205     -0.0364090892
 C     -0.0282872607     -0.0245368242     -0.0626038084
 O      0.0069635395      0.0126140774      0.0315420732
 C     -0.0167692017     -0.0302898691     -0.0266658908
 C      0.0427625335      0.0299245715      0.0166440775
 H     -0.0090321074     -0.0042387519     -0.0087167520
 C      0.0227141303     -0.0014054487     -0.0148045767
 C     -0.0247806618     -0.0467595178     -0.0117683974
 C      0.0196930493      0.0339278425     -0.0042869336
 H     -0.0329087366     -0.0347462024      0.0051909649
 H     -0.0084485220     -0.0037184997      0.0164656771
 H      0.0527726003     -0.0856734089     -0.0691119959
 H      0.0054980590      0.0153517004     -0.0078306282
 H      0.0510380329     -0.0030271763     -0.0084512544
 H      0.0307446862     -0.0356153413      0.1126391351
 H      0.0057449816      0.0297170265      0.0155368983
 H     -0.0138624345      0.0116731872      0.0144065068
 H     -0.0178158436      0.0068869182     -0.0205340569
 H      0.0534718019      0.0192673397      0.0060002181
 H      0.0031828332      0.0098855819      0.0060697906
 H      0.0396892348      0.0063934946      0.0144869523
 H      0.0461403153     -0.0666762694     -0.0047904595
 H     -0.0012579241     -0.0071004298     -0.0073642584
 H      0.0359704009      0.0057262724      0.0103371901
 H     -0.0122063430     -0.0024305305      0.0107950434
 H     -0.0258367673      0.0623410379     -0.0338814799
 H     -0.0627801838     -0.0071746111     -0.0053403802
 H     -0.0175995071      0.0404945126      0.0133977407
 H      0.0208089610      0.0183549482     -0.0197688498
 H     -0.0088072746      0.0205706678      0.0294261207
 H      0.0171093708      0.0118525492      0.0024830362
 H     -0.0088519429     -0.0015636842      0.0055064546
 H      0.0074243375      0.0059692914      0.0226861808
 H     -0.0206937249      0.0169667161      0.0096344622
 H      0.0386449247     -0.0014659393      0.0171973827
 H      0.0181408521      0.0088325464      0.0097635393
 H      0.0059402161     -0.0071268864      0.0374501992
 H     -0.0042999635     -0.0112895227      0.0039955202
60
# ORCA AIMD Force Step 6, t=3.00 fs, E_Pot=-1207.38626210 Hartree, Unit is Hartree/Angstrom
 C     -0.0403355345      0.0764741023      0.0888324277
 C     -0.0036089305     -0.0921506416     -0.0738464847
 O     -0.0368855681      0.0251589622      0.0060891399
 C     -0.0794714859      0.0595113635     -0.1106442812
 C      0.0262983125     -0.0190304417      0.0218181348
 C     -0.0304305667     -0.0189442027      0.0028407395
 C     -0.1099225018      0.0593328104     -0.0045222490
 O     -0.0546437072      0.0335491210     -0.0109127848
 B      0.0806140604     -0.0381740282      0.0048002979
 C     -0.0266395847      0.0591105769      0.0316291622
 C     -0.0152423398      0.0365967510      0.0504394774
 C      0.0191081282     -0.0164917273     -0.0265857089
 H     -0.0606868686     -0.0009105556     -0.0220329111
 C      0.0754214097      0.0035571998      0.0414064138
 H     -0.0124956297     -0.0105780080     -0.0507110914
 C     -0.0171532359      0.0112535316      0.0155104396
 B     -0.0155217018     -0.0071234018     -0.0097622793
 O     -0.0154119843     -0.0028330108      0.0438467631
 C      0.0168072751     -0.0878138230     -0.0761202420
 C     -0.0094016875     -0.0408460323      0.0276254527
 C      0.0548664331     -0.0108491053     -0.0003042304
 C      0.0404996210      0.0379484859     -0.0041196603
 C      0.0071598235     -0.0517736804     -0.0347816311
 C     -0.0301389172     -0.0220115843     -0.0677377557
 O      0.0059081290      0.0124584832      0.0340885387
 C     -0.0167581446     -0.0354329876     -0.0368794444
 C      0.0492482114      0.0351348610      0.0209148477
 H     -0.0122022625     -0.0063545743     -0.0125617147
 C      0.0268003329     -0.0000379265     -0.0093028673
 C     -0.0324683573     -0.0577561380     -0.0160504711
 C      0.0191191530      0.0319111050     -0.0017046124
 H     -0.0302643926     -0.0324280538      0.0092316477
 H     -0.0135998484     -0.0038221157      0.0178659650
 H      0.0538560079     -0.0859134631     -0.0674688756
 H      0.0078074370      0.0209250211     -0.0097450816
 H      0.0478468822     -0.0011914757     -0.0105622667
 H      0.0326564678     -0.0354445889      0.1104511097
 H      0.0085558740      0.0272583532      0.0125228643
 H     -0.0160044361      0.0102586169      0.0106788063
 H     -0.0236511343      0.0039609095     -0.0189641807
 H      0.0583124525      0.0220164535      0.0062290884
 H      0.0043826107      0.0088296481      0.0008991773
 H      0.0442952553      0.0072134687      0.0159655735
 H      0.0492741995     -0.0642683818     -0.0063529958
 H      0.0028396553     -0.0104516681     -0.0096927686
 H      0.0418531726      0.0073779711      0.0121228082
 H     -0.0167283566     -0.0035047937      0.0155741423
 H     -0.0274036654      0.0661206231     -0.0350925172
 H     -0.0616532075     -0.0047542171     -0.0026301207
 H     -0.0191521818      0.0385677140      0.0092466210
 H      0.0193141961      0.0185728005     -0.0157509908
 H     -0.0102491976      0.0238197276      0.0340233355
 H      0.0137409893      0.0114392816     -0.0020277349
 H     -0.0076020753      0.0034932203      0.0039572146
 H      0.0080681290      0.0069208919      0.0281744331
 H     -0.0189480261      0.0126650755      0.0107050184
 H      0.0358838208     -0.0040970032      0.0145562861
 H      0.0131548911      0.0068357020      0.0118918542
 H      0.0044326830     -0.0060539967      0.0325713800
 H     -0.0023122074     -0.0073689217     -0.0000725373
60
# ORCA AIMD Force Step 7, t=3.50 fs, E_Pot=-1207.38233851 Hartree, Unit is Hartree/Angstrom
 C     -0.0324462652      0.0648297684      0.0778871547
 C     -0.0027138732     -0.1076143164     -0.0857464971
 O     -0.0462629182      0.0325778083      0.0080893343
 C     -0.0771923185      0.0605287248     -0.0870214780
 C      0.0310309098     -0.0231101645      0.0242779824
 C     -0.0225044547     -0.0167237876      0.0067871518
 C     -0.1117695833      0.0571834626      0.0022479668
 O     -0.0589232554      0.0370824580     -0.0101967121
 B      0.0910321600     -0.0423875593      0.0072494930
 C     -0.0293701098      0.0653967391      0.0372196209
 C     -0.0190020236      0.0384056359      0.0532365740
 C      0.0101308979     -0.0154713313     -0.0324452057
 H     -0.0552784093      0.0006996759     -0.0179817244
 C      0.0821968512     -0.0000283650      0.0369361719
 H     -0.0110009917     -0.0072642372     -0.0449497861
 C     -0.0177812559      0.0148170796      0.0223340375
 B     -0.0167841325     -0.0079475466     -0.0127308010
 O     -0.0144073771     -0.0012783327      0.0500862808
 C      0.0192080776     -0.1011006130     -0.0865543571
 C     -0.0120196659     -0.0302292744      0.0261436729
 C      0.0541370604     -0.0052853475     -0.0037035733
 C      0.0457849191      0.0430388158     -0.0038583356
 C      0.0080335078     -0.0581362512     -0.0290094016
 C     -0.0312997800     -0.0175126473     -0.0686884057
 O      0.0047712779      0.0122317746      0.0363588261
 C     -0.0153582568     -0.0397118014     -0.0464441764
 C      0.0540472517      0.0391916678      0.0238749125
 H     -0.0141093251     -0.0075923167     -0.0151760864
 C      0.0310272376      0.0009182735     -0.0014351511
 C     -0.0399082030     -0.0685165650     -0.0196623347
 C      0.0167064115      0.0272137289      0.0003329796
 H     -0.0258518459     -0.0276223612      0.0137238031
 H     -0.0177061690     -0.0040350889      0.0190127815
 H      0.0484390003     -0.0758946442     -0.0554483803
 H      0.0094335872      0.0248093515     -0.0113687844
 H      0.0415947466      0.0011481776     -0.0123913357
 H      0.0328373435     -0.0300274683      0.0935777823
 H      0.0115398513      0.0230534039      0.0082371045
 H     -0.0176966981      0.0084276275      0.0061645447
 H     -0.0291127356      0.0007102087     -0.0167208211
 H      0.0573420765      0.0244314401      0.0046631878
 H      0.0055715783      0.0073769185     -0.0045204953
 H      0.0440078131      0.0077580500      0.0151502672
 H      0.0504454748     -0.0580239604     -0.0079493847
 H      0.0062000428     -0.0132594273     -0.0116723395
 H      0.0440711588      0.0081606712      0.0121818929
 H     -0.0201423947     -0.0041774680      0.0192479890
 H     -0.0256029804      0.0626867297     -0.0317700859
 H     -0.0570374039     -0.0015419735      0.0008450701
 H     -0.0201369720      0.0343136681      0.0035688437
 H      0.0165915605      0.0179893485     -0.0103087643
 H     -0.0101277054      0.0260982745      0.0350872676
 H      0.0093180122      0.0104585910     -0.0070598710
 H     -0.0060645248      0.0086829813      0.0022240117
 H      0.0092974720      0.0075416787      0.0311612263
 H     -0.0159980608      0.0070331227      0.0114080970
 H      0.0306797593     -0.0069392778      0.0106426737
 H      0.0068456340      0.0042838061      0.0138246321
 H      0.0026632712     -0.0047504562      0.0250475565
 H     -0.0002078694     -0.0030152692     -0.0044539124
60
# ORCA AIMD Force Step 8, t=4.00 fs, E_Pot=-1207.38075814 Hartree, Unit is Hartree/Angstrom
 C     -0.0200726760      0.0477677820      0.0584078015
 C     -0.0014043573     -0.1222604266     -0.0968563434
 O     -0.0553576653      0.0399414106      0.0103010077
 C     -0.0710185515      0.0581467023     -0.0522964767
 C      0.0354861332     -0.0272949867      0.0264677801
 C     -0.0100112930     -0.0138677490      0.0127493145
 C     -0.1063875984      0.0515121893      0.0111674301
 O     -0.0625743364      0.0402386264     -0.0094559278
 B      0.1002809338     -0.0459285638      0.0097644753
 C     -0.0316602880      0.0712420179      0.0425942748
 C     -0.0217515069      0.0390422147      0.0548301999
 C     -0.0021030750     -0.0140838357     -0.0394106537
 H     -0.0461659363      0.0022787893     -0.0120417059
 C      0.0873269701     -0.0046655572      0.0290918504
 H     -0.0085098179     -0.0029005997     -0.0358056528
 C     -0.0182522717      0.0181287989      0.0285230318
 B     -0.0178318658     -0.0085902420     -0.0155272961
 O     -0.0133047126      0.0001349147      0.0558461129
 C      0.0213452654     -0.1133457583     -0.0962257722
 C     -0.0152150231     -0.0130816237      0.0239734530
 C      0.0503708775      0.0021867722     -0.0077189260
 C      0.0508420853      0.0475670454     -0.0034557055
 C      0.0079852731     -0.0626877791     -0.0193961186
 C     -0.0317727216     -0.0113662587     -0.0652022236
 O      0.0035844159      0.0119526973      0.0383435846
 C     -0.0128503005     -0.0431912059     -0.0550921783
 C      0.0568421389      0.0418371425      0.0251975782
 H     -0.0144096053     -0.0077008139     -0.0162624869
 C      0.0352979716      0.0014903605      0.0085002275
 C     -0.0468710400     -0.0785846947     -0.0229368928
 C      0.0125302076      0.0199188252      0.0017971640