38
# ORCA AIMD Position Step 0, t=0.00 fs, E_Pot=-772.15917503 Hartree, Unit is Angstrom
 C      1.5950100508      0.6277385774     -0.7454749575
 C      2.3813153641      1.6981719249     -0.0337137484
 C      3.2935523448      1.4563496393      0.9066519787
 C      3.6577434428      0.1370840216      1.4195132674
 C      2.6344264739     -0.9799553035      1.5697297960
 C      3.7368062851     -1.0950244851      0.5255775564
 C      3.4535910467     -1.0444598179     -0.9081171469
 C      2.5136582979     -0.3012586929     -1.4907768318
 C      1.2134830231     -0.8332726457      1.2299578157
 C      0.6905217387     -0.1288629403      0.2170698877
 C     -0.7720413819      0.0389467223     -0.0076549234
 C     -1.2286014165     -0.0603463824     -1.3152388974
 C     -2.5950436415      0.2498884208     -1.8299713859
 C     -3.3096914080      1.4279123934     -1.2643003455
 C     -3.4997160227      1.6217539048      0.0317447661
 C     -3.0251710541      0.6936020443      1.0910299788
 C     -1.5941491942      0.2662094007      1.0998329442
 C     -3.3011315746     -0.7645359236      1.0071478513
 C     -3.3465104224     -1.5305542058     -0.1505595764
 C     -2.9879723479     -1.1268337139     -1.4184721898
 H      0.9534630257      1.1253948279     -1.4706852113
 H      2.1954647754      2.7266763170     -0.3257697699
 H      3.8218139928      2.2979880076      1.3454142385
 H      4.4110860245      0.1518783381      2.1979697973
 H      2.8095946286     -1.5988161297      2.4411429056
 H      4.5337484701     -1.7755017479      0.7998685854
 H      4.0718026556     -1.6813097664     -1.5338243572
 H      2.4001564317     -0.3554207749     -2.5690545185
 H      0.5335496146     -1.3704849996      1.8857843364
 H     -0.5314686225     -0.4292078617     -2.0591812178
 H     -2.5701824376      0.3203567016     -2.9161588912
 H     -3.6711936715      2.1689420652     -1.9711732376
 H     -4.0145443615      2.5169272714      0.3656118625
 H     -3.2996848195      1.0720582768      2.0721614822
 H     -1.1317734027      0.2066052476      2.0771260898
 H     -3.5207255606     -1.2611302832      1.9457543573
 H     -3.5549047030     -2.5880317218     -0.0222274353
 H     -2.9462816444     -1.8794767063     -2.1967348553
38
# ORCA AIMD Position Step 1, t=0.50 fs, E_Pot=-772.15729584 Hartree, Unit is Angstrom
 C      1.5991744513      0.6261513392     -0.7440882745
 C      2.3813204516      1.7040626965     -0.0264657968
 C      3.2982804260      1.4547977482      0.9066132021
 C      3.6634887559      0.1311889483      1.4223629673
 C      2.6317579831     -0.9785012340      1.5674916862
 C      3.7344413385     -1.0934130594      0.5237629577
 C      3.4560224866     -1.0482862575     -0.9098683422
 C      2.5175549377     -0.3049458512     -1.4915809121
 C      1.2101277261     -0.8332437690      1.2296532885
 C      0.6926341272     -0.1369740478      0.2151554675
 C     -0.7692731941      0.0362620398     -0.0113257398
 C     -1.2268770524     -0.0643329581     -1.3145638044
 C     -2.5895827018      0.2465018097     -1.8296376631
 C     -3.3132988526      1.4260285213     -1.2664056337
 C     -3.4986664352      1.6196220536      0.0344711920
 C     -3.0222218442      0.6899329565      1.0903163078
 C     -1.5924536173      0.2637128914      1.0999301709
 C     -3.3013318307     -0.7633892543      1.0017844924
 C     -3.3465919623     -1.5257510951     -0.1466208374
 C     -2.9854097024     -1.1289755129     -1.4200651216
 H      0.9387293264      1.1135556924     -1.4765446668
 H      2.1862544211      2.7229846347     -0.3248992525
 H      3.8258037214      2.3056631732      1.3431112997
 H      4.4191424285      0.1586109997      2.2077626221
 H      2.8119996796     -1.6077028797      2.4362273337
 H      4.5373140836     -1.7530581481      0.8046276170
 H      4.0679660380     -1.6874600721     -1.5349840032
 H      2.3998995236     -0.3589313003     -2.5632206872
 H      0.5213461425     -1.3674216128      1.8863555630
 H     -0.5247514663     -0.4141823821     -2.0514282269
 H     -2.5801282798      0.3209396542     -2.9135023699
 H     -3.6681942116      2.1785649876     -1.9793882807
 H     -4.0036937558      2.5247374817      0.3478371282
 H     -3.3015615970      1.0916031971      2.0839109433
 H     -1.1243156421      0.2012679038      2.0895859696
 H     -3.5280372217     -1.2669328113      1.9587473649
 H     -3.5629796147     -2.5947874873     -0.0419181779
 H     -2.9538890667     -1.8878989957     -2.2031997834
38
# ORCA AIMD Position Step 2, t=1.00 fs, E_Pot=-772.15231752 Hartree, Unit is Angstrom
 C      1.6032980729      0.6245813075     -0.7427375501
 C      2.3813042967      1.7098741586     -0.0192477852
 C      3.3030255852      1.4532775057      0.9066063330
 C      3.6692263962      0.1253609754      1.4252195665
 C      2.6291050691     -0.9770862905      1.5652928396
 C      3.7320705752     -1.0917836417      0.5219538012
 C      3.4584499042     -1.0521048051     -0.9116110432
 C      2.5214389416     -0.3086113203     -1.4923488735
 C      1.2067726838     -0.8332588694      1.2294022374
 C      0.6947335709     -0.1450357526      0.2131961449
 C     -0.7665187525      0.0335843968     -0.0149313997
 C     -1.2251495457     -0.0682699894     -1.3138904269
 C     -2.5841652076      0.2431354815     -1.8293020527
 C     -3.3168999541      1.4241605325     -1.2685082077
 C     -3.4976070096      1.6174916003      0.0371123214
 C     -3.0193121672      0.6863537644      1.0897151147
 C     -1.5906771809      0.2612122917      1.1000847617
 C     -3.3015729975     -0.7623037424      0.9966270080
 C     -3.3466777894     -1.5210606098     -0.1428071933
 C     -2.9828885681     -1.1311646089     -1.4216563473
 H      0.9246987684      1.1015183951     -1.4818440923
 H      2.1770532779      2.7197512019     -0.3240278002
 H      3.8295953614      2.3128674902      1.3407282470
 H      4.4267558974      0.1651179393      2.2171358532
 H      2.8142060594     -1.6164003806      2.4310334193
 H      4.5411226907     -1.7312147786      0.8094455646
 H      4.0642782003     -1.6937345502     -1.5361967824
 H      2.3995981851     -0.3624952110     -2.5579001452
 H      0.5094235289     -1.3642064602      1.8867086690
 H     -0.5176152168     -0.3992992966     -2.0442199386
 H     -2.5898657707      0.3214513552     -2.9109979997
 H     -3.6649845775      2.1875666328     -1.9870609516
 H     -3.9929726263      2.5326171233      0.3304122057
 H     -3.3030603629      1.1103742535      2.0943922384
 H     -1.1173282922      0.1960437023      2.1010142423
 H     -3.5348370370     -1.2719613870      1.9703292456
 H     -3.5707603568     -2.6007087576     -0.0612845747
 H     -2.9614315391     -1.8959354306     -2.2091935758
38
# ORCA AIMD Position Step 3, t=1.50 fs, E_Pot=-772.14534307 Hartree, Unit is Angstrom
 C      1.6073456283      0.6230399786     -0.7414510009
 C      2.3812491307      1.7155340636     -0.0120792334
 C      3.3078080790      1.4518177550      0.9066582876
 C      3.6749533365      0.1196643605      1.4280896228
 C      2.6264851201     -0.9757442485      1.5631691080
 C      3.7296907047     -1.0901201470      0.5201526698
 C      3.4608718231     -1.0559092546     -0.9133393318
 C      2.5253023802     -0.3122367989     -1.4930428467
 C      1.2034181742     -0.8333540968      1.2292508963
 C      0.6968096081     -0.1530114461      0.2111510397
 C     -0.7637886730      0.0309100933     -0.0184143543
 C     -1.2234409128     -0.0721427232     -1.3132138343
 C     -2.5788308917      0.2398097161     -1.8289647887
 C     -3.3204870911      1.4223209650     -1.2706001631
 C     -3.4965259689      1.6153631200      0.0395881657
 C     -3.0164701251      0.6829411394      1.0893150932
 C     -1.5887590426      0.2587002188      1.1003411965
 C     -3.3018864676     -0.7613116482      0.9918451522
 C     -3.3467780891     -1.5165866800     -0.1392305317
 C     -2.9804103656     -1.1334254459     -1.4232497882
 H      0.9120094416      1.0891452323     -1.4860771428
 H      2.1678818029      2.7174172671     -0.3231491240
 H      3.8330748801      2.3192098855      1.3381922807
 H      4.4336116136      0.1712037384      2.2257052476
 H      2.8160924420     -1.6247043511      2.4253224785
 H      4.5454503015     -1.7104912202      0.8143660700
 H      4.0608779757     -1.7002663923     -1.5375192512
 H      2.3992054511     -0.3661559719     -2.5535709862
 H      0.4980810178     -1.3607310899      1.8867038140
 H     -0.5097487276     -0.3848090158     -2.0380368965
 H     -2.5991933858      0.3218382464     -2.9088246258
 H     -3.6613910366      2.1954546159     -1.9937436817
 H     -3.9824508745      2.5405978226      0.3136518713
 H     -3.3038605238      1.1276756156      2.1025592951
 H     -1.1112066436      0.1909750981      2.1105625557
 H     -3.5408717870     -1.2756756391      1.9793877413
 H     -3.5781289831     -2.6050570000     -0.0800568301
 H     -2.9688888773     -1.9032065663     -2.2143013113
38
# ORCA AIMD Position Step 4, t=2.00 fs, E_Pot=-772.13766438 Hartree, Unit is Angstrom
 C      1.6112911602      0.6215310525     -0.7402485054
 C      2.3811392910      1.7209823466     -0.0049725100
 C      3.3126474276      1.4504420701      0.9067920092
 C      3.6806658230      0.1141574276      1.4309778892
 C      2.6239125650     -0.9745046762      1.5611496266
 C      3.7273024257     -1.0884123950      0.5183625066
 C      3.4632901658     -1.0596977953     -0.9150501535
 C      2.5291403916     -0.3158077442     -1.4936330557
 C      1.2000643150     -0.8335619064      1.2292412052
 C      0.6988536123     -0.1608723810      0.2089792491
 C     -0.7610901138      0.0282327424     -0.0217214068
 C     -1.2217656353     -0.0759433117     -1.3125355277
 C     -2.5736144758      0.2365408460     -1.8286289013
 C     -3.3240515385      1.4205139637     -1.2726712229
 C     -3.4954138040      1.6132395289      0.0418271069
 C     -3.0137140239      0.6797594561      1.0891816633
 C     -1.5866461783      0.2561680844      1.1007295363
 C     -3.3022980064     -0.7604305877      0.9875793893
 C     -3.3469018757     -1.5124191674     -0.1359990133
 C     -2.9779749618     -1.1357782533     -1.4248460129
 H      0.9012034309      1.0763610026     -1.4888427708
 H      2.1587592357      2.7163416380     -0.3222423090
 H      3.8361704378      2.3243691923      1.3354596442
 H      4.4394663359      0.1766825504      2.2331593140
 H      2.8175518911     -1.6324493093      2.4189038528
 H      4.5505039685     -1.6913164400      0.8194126641
 H      4.0578826535     -1.7071767383     -1.5389928341
 H      2.3986797790     -0.3699555902     -2.5506233912
 H      0.4875695680     -1.3569150491      1.8862384470
 H     -0.5009067205     -0.3708992445     -2.0332691357
 H     -2.6079247042      0.3220480115     -2.9071218102
 H     -3.6572861656      2.2018300170     -1.9990801696
 H     -3.9721605473      2.5486735152      0.2978281069
 H     -3.3037186872      1.1429316088      2.1076463378
 H     -1.1062522629      0.1860922818      2.1175798656
 H     -3.5459556447     -1.2776857729      1.9850993760
 H     -3.5849939893     -2.6072326159     -0.0979629998
 H     -2.9762364380     -1.9094086151     -2.2181905619
38
# ORCA AIMD Position Step 5, t=2.50 fs, E_Pot=-772.13044247 Hartree, Unit is Angstrom
 C      1.6151181459      0.6200511804     -0.7391411248
 C      2.3809604269      1.7261718853      0.0020644223
 C      3.3175608204      1.4491678819      0.9070263005
 C      3.6863570248      0.1088933788      1.4338853599
 C      2.6213993124     -0.9733923224      1.5592563525
 C      3.7249137205     -1.0866579494      0.5165881889
 C      3.4657107431     -1.0634732671     -0.9167433398
 C      2.5329496383     -0.3193125141     -1.4941007125
 C      1.1967128996     -0.8339102822      1.2294097382
 C      0.7008588458     -0.1685960136      0.2066407328
 C     -0.7584276310      0.0255438181     -0.0248036291
 C     -1.2201275438     -0.0796705651     -1.3118663478
 C     -2.5685470681      0.2333417008     -1.8283007692
 C     -3.3275825103      1.4187347745     -1.2747073785
 C     -3.4942633424      1.6111268897      0.0437655295
 C     -3.0110533813      0.6768615381      1.0893583621
 C     -1.5842946441      0.2536066594      1.1012648315
 C     -3.3028275676     -0.7596652924      0.9839421644
 C     -3.3470562005     -1.5086317374     -0.1332163332
 C     -2.9755811858     -1.1382375103     -1.4264409232
 H      0.8927179579      1.0631554313     -1.4898523391
 H      2.1497141361      2.7167707842     -0.3212611379
 H      3.8388571815      2.3281047337      1.3325207605
 H      4.4441572399      0.1813800641      2.2392695816
 H      2.8184950507     -1.6395168408      2.4116472917
 H      4.5563865801     -1.6740141259      0.8245746754
 H      4.0553799000     -1.7145626964     -1.5406344262
 H      2.3979905221     -0.3739317995     -2.5493256892
 H      0.4780825280     -1.3527139157      1.8852573145
 H     -0.4909509321     -0.3576885116     -2.0301806456
 H     -2.6158853897      0.3220292512     -2.9059831291
 H     -3.6525918032      2.2063980384     -2.0028146151
 H     -3.9620966752      2.5567901489      0.2831730446
 H     -3.3024627580      1.1556848431      2.1091464156
 H     -1.1026700464      0.1814128607      2.1216184777
 H     -3.5499672895     -1.2777421095      1.9869141248
 H     -3.5912960024     -2.6068001966     -0.1147322441
 H     -2.9834455932     -1.9143233914     -2.2206215879
38
# ORCA AIMD Position Step 6, t=3.00 fs, E_Pot=-772.12448804 Hartree, Unit is Angstrom
 C      1.6188187332      0.6185910150     -0.7381312423
 C      2.3806987444      1.7310679180      0.0090243976
 C      3.3225607765      1.4480063735      0.9073754321
 C      3.6920143642      0.1039218212      1.4368072791
 C      2.6189554392     -0.9724270161      1.5575043277
 C      3.7225426433     -1.0848633429      0.5148380373
 C      3.4681427595     -1.0672422727     -0.9184213798
 C      2.5367263376     -0.3227410308     -1.4944402565
 C      1.1933691401     -0.8344218623      1.2297865631
 C      0.7028200587     -0.1761633610      0.2040978826
 C     -0.7558041928      0.0228335840     -0.0276161928
 C     -1.2185179503     -0.0833285043     -1.3112282201
 C     -2.5636580790      0.2302228081     -1.8279904318
 C     -3.3310658770      1.4169698835     -1.2766898031
 C     -3.4930697263      1.6090350035      0.0453468918
 C     -3.0084906220      0.6742901325      1.0898687653
 C     -1.5816707298      0.2510070279      1.1019470030
 C     -3.3034893366     -0.7590101500      0.9810197352
 C     -3.3472456566     -1.5052810666     -0.1309801767
 C     -2.9732275800     -1.1408102000     -1.4280247275
 H      0.8868822125      1.0495846975     -1.4889313837
 H      2.1407957641      2.7188164160     -0.3201248171
 H      3.8411600396      2.3302631294      1.3294044678
 H      4.4476067558      0.1851348243      2.2438966432
 H      2.8188529415     -1.6458406563      2.4034929074
 H      4.5630729132     -1.6588017616      0.8297966580
 H      4.0534237897     -1.7224882089     -1.5424299735
 H      2.3971232919     -0.3781149364     -2.5497957165
 H      0.4697516211     -1.3481251019      1.8837592826
 H     -0.4798822801     -0.3452289574     -2.0288857483
 H     -2.6229092204      0.3217312402     -2.9054530920
 H     -3.6472796938      2.2089724230     -2.0047948066
 H     -3.9522235758      2.5648421349      0.2698868476
 H     -3.2999845345      1.1655871864      2.1067842895
 H     -1.1005692747      0.1769425420      2.1224324539
 H     -3.5528446754     -1.2757216800      1.9845325543
 H     -3.5970103439     -2.6035008173     -0.1300964724
 H     -2.9904837494     -1.9178252125     -2.2214546626
38
# ORCA AIMD Position Step 7, t=3.50 fs, E_Pot=-772.12014802 Hartree, Unit is Angstrom
 C      1.6223923877      0.6171365488     -0.7372129859
 C      2.3803408945      1.7356457660      0.0158970415
 C      3.3276522915      1.4469626778      0.9078489522
 C      3.6976162358      0.0992907742      1.4397308942
 C      2.6165903043     -0.9716237188      1.5559022759
 C      3.7202189947     -1.0830444496      0.5131251986
 C      3.4705976151     -1.0710134153     -0.9200886564
 C      2.5404641103     -0.3260832060     -1.4946603549
 C      1.1900437222     -0.8351131215      1.2303940217
 C      0.7047328671     -0.1835556621      0.2013180555
 C     -0.7532226761      0.0200924965     -0.0301173604
 C     -1.2169157241     -0.0869236400     -1.3106544774
 C     -2.5589779946      0.2271941218     -1.8277117089
 C     -3.3344823898      1.4151976264     -1.2785938398
 C     -3.4918303034      1.6069777621      0.0465208129
 C     -3.0060227836      0.6720791242      1.0907175368
 C     -1.5787528046      0.2483620457      1.1027605730
 C     -3.3042913841     -0.7584514087      0.9788728899
 C     -3.3474719039     -1.5024065088     -0.1293803630
 C     -2.9709134085     -1.1434940087     -1.4295809002
 H      0.8839133915      1.0357759519     -1.4860231643
 H      2.1320834423      2.7224476242     -0.3187143643
 H      3.8431532271      2.3307812149      1.3261800798
 H      4.4498237803      0.1877994688      2.2469924427
 H      2.8185792470     -1.6514082854      2.3944591340
 H      4.5703999710     -1.6458023521      0.8349727036
 H      4.0520335080     -1.7309757886     -1.5443308964
 H      2.3960839295     -0.3825244002     -2.5519870158
 H      0.4626470080     -1.3431913401      1.8818006257
 H     -0.4678543919     -0.3335211678     -2.0293463186
 H     -2.6288339242      0.3211042717     -2.9055277293
 H     -3.6413726182      2.2094786367     -2.0049742816
 H     -3.9424861615      2.5726744759      0.2581475269
 H     -3.2962356374      1.1723928460      2.1004997272
 H     -1.0999643037      0.1726764388      2.1199767379
 H     -3.5545819044     -1.2716215514      1.9778946902
 H     -3.6021479246     -2.5972612872     -0.1437906837
 H     -2.9973135854     -1.9198848762     -2.2206552716
38
# ORCA AIMD Position Step 8, t=4.00 fs, E_Pot=-772.11728985 Hartree, Unit is Angstrom
 C      1.6258449941      0.6156702035     -0.7363723319
 C      2.3798743249      1.7398880712      0.0226656374
 C      3.3328301212      1.4460360537      0.9084513564
 C      3.7031293985      0.0950477986      1.4426336217
 C      2.6143135036     -0.9709924501      1.5544531428
 C      3.7179842417     -1.0812258948      0.5114681877
 C      3.4730873665     -1.0747953112     -0.9217505575
 C      2.5441523075     -0.3293276220     -1.4947834397
 C      1.1867543836     -0.8359933895      1.2312451570
 C      0.7065932062     -0.1907514951      0.1982763250
 C     -0.7506869961      0.0173124310     -0.0322687596
 C     -1.2152890344     -0.0904618816     -1.3101882763
 C     -2.5545401992      0.2242660971     -1.8274816865
 C     -3.3378061834      1.4133887696     -1.2803885017
 C     -3.4905444466      1.6049729093      0.0472429547
 C     -3.0036427830      0.6702538674      1.0918898108
 C     -1.5755335138      0.2456676777      1.1036738280
 C     -3.3052347508     -0.7579684764      0.9775348646
 C     -3.3477331454     -1.5000289895     -0.1284962900
 C     -2.9686395146     -1.1462755834     -1.4310856123
 H      0.8839071768      1.0219313792     -1.4811954202
 H      2.1236914125      2.7274950602     -0.3168747735
 H      3.8449592617      2.3296899400      1.3229586164
 H      4.4509051951      0.1892438444      2.2486033578
 H      2.8176531914     -1.6562623222      2.3846491713
 H      4.5780750913     -1.6350624170      0.8399486104
 H      4.0511947497     -1.7400016167     -1.5462543270
 H      2.3949004989     -0.3871656721     -2.5556902025
 H      0.4567765624     -1.3380036232      1.8794975356
 H     -0.4551693705     -0.3225333347     -2.0313832469
 H     -2.6335001854      0.3201010517     -2.9061574579
 H     -3.6349457463      2.2079591002     -2.0034157395
 H     -3.9328231747      2.5800921192      0.2481178576
 H     -3.2912297217      1.1759632396      2.0904517707
 H     -1.1007701625      0.1685994563      2.1144180353
 H     -3.5552326928     -1.2655653890      1.9671944510
 H     -3.6067573448     -2.5882076889     -0.1555563140
 H     -3.0038929310     -1.9205722976     -2.2182976095
38
# ORCA AIMD Position Step 9, t=4.50 fs, E_Pot=-772.11536776 Hartree, Unit is Angstrom
 C      1.6291892830      0.6141715042     -0.7355867859
 C      2.3792877943      1.7437830582      0.0293069408
 C      3.3380780589      1.4452197225      0.9091818136
 C      3.7085088836      0.0912387713      1.4454827173
 C      2.6121347684     -0.9705379052      1.5531542431
 C      3.7158889283     -1.0794390292      0.5098898682
 C      3.4756237379     -1.0785955937     -0.9234129072
 C      2.5477761519     -0.3324615389     -1.4948435539
 C      1.1835260029     -0.8370640133      1.2323423141
 C      0.7083975639     -0.1977268758      0.1949576634
 C     -0.7482024675      0.0144872251     -0.0340372025
 C     -1.2135981849     -0.0939465827     -1.3098789854
 C     -2.5503803171      0.2214494856     -1.8273196654
 C     -3.3410049611      1.4115067861     -1.2820369079
 C     -3.4892129572      1.6030406547      0.0474768109
 C     -3.0013392264      0.6688293131      1.0933492550
 C     -1.5720216195      0.2429237278      1.1046381198
 C     -3.3063123959     -0.7575338418      0.9770061924
 C     -3.3480236861     -1.4981482697     -0.1283923824
 C     -2.9664082687     -1.1491300571     -1.4325082777
 H      0.8868224498      1.0083271036     -1.4746489705
 H      2.1157648617      2.7336697296     -0.3144234694
 H      3.8467471045      2.3271182936      1.3198912851
 H      4.4510362757      0.1893608746      2.2488729399
 H      2.8160824324     -1.6605015531      2.3742510457
 H      4.5857037517     -1.6265699758      0.8445337576
 H      4.0508618175     -1.7494956870     -1.5480866780
 H      2.3936214932     -0.3920295349     -2.5605546240
 H      0.4520847006     -1.3326993013      1.8770245153
 H     -0.4422514796     -0.3122181350     -2.0347028121
 H     -2.6367563010      0.3186792240     -2.9072554368
 H     -3.6281264058      2.2045827484     -2.0002983070
 H     -3.9231766602      2.5868756571      0.2399440223
 H     -3.2850487869      1.1762851769      2.0770374114
 H     -1.1027960818      0.1646847559      2.1061493041
 H     -3.5549194639     -1.2578189578      1.9529107230
 H     -3.6109298528     -2.5766805607     -0.1651528917
 H     -3.0101777926     -1.9200590933     -2.2145675389
38
# ORCA AIMD Position Step 10, t=5.00 fs, E_Pot=-772.11356982 Hartree, Unit is Angstrom
 C      1.6324467736      0.6126170122     -0.7348248034
 C      2.3785727837      1.7473234862      0.0357948240
 C      3.3433705244      1.4445010887      0.9100344077
 C      3.7137005638      0.0879051290      1.4482364020
 C      2.6100633968     -0.9702592078      1.5519970689
 C      3.7139882499     -1.0777189494      0.5084155977
 C      3.4782178107     -1.0824211118     -0.9250815871
 C      2.5513184976     -0.3354721802     -1.4948830627
 C      1.1803890400     -0.8383183303      1.2336765516
 C      0.7101435432     -0.2044581526      0.1913573728
 C     -0.7457748584      0.0116119931     -0.0353967666
 C     -1.2117991963     -0.0973780348     -1.3097773377
 C     -2.5465341992      0.2187545991     -1.8272458439
 C     -3.3440415173      1.4095079714     -1.2834977028
 C     -3.4878369768      1.6012013500      0.0471944817
 C     -2.9990952240      0.6678068734      1.0950358322
 C     -1.5682417024      0.2401331717      1.1055876451
 C     -3.3075082431     -0.7571127885      0.9772480452
 C     -3.3483338321     -1.4967398420     -0.1291131095
 C     -2.9642225006     -1.1520221934     -1.4338128960
 H      0.8924671167      0.9953054116     -1.4667233569
 H      2.1084679675      2.7405969534     -0.3111641351
 H      3.8487249555      2.3232864239      1.3171618195
 H      4.4504872722      0.1880720746      2.2480408537
 H      2.8139036222     -1.6642793806      2.3635281928
 H      4.5928294739     -1.6202697787      0.8485189813
 H      4.0509642016     -1.7593511358     -1.5496935647
 H      2.3923113506     -0.3970938674     -2.5661261255
 H      0.4484510258     -1.3274561982      1.8746085843
 H     -0.4295974762     -0.3025274325     -2.0389388144
 H     -2.6384655169      0.3168029725     -2.9087061895
 H     -3.6210872085      2.1996422762     -1.9959133053
 H     -3.9134986253      2.5928027771      0.2337496626
 H     -3.2778515358      1.1734990516      2.0609202231
 H     -1.1057410820      0.1608906014      2.0957992574
 H     -3.5538446701     -1.2488068161      1.9358413496
 H     -3.6148042552     -2.5632384295     -0.1723742607
 H     -3.0161277933     -1.9186186862     -2.2097616212
38
# ORCA AIMD Position Step 11, t=5.50 fs, E_Pot=-772.11105139 Hartree, Unit is Angstrom
 C      1.6356501276      0.6109800642     -0.7340454320
 C      2.3777241635      1.7505062605      0.0421054930
 C      3.3486763223      1.4438621336      0.9109990183
 C      3.7186459372      0.0850803788      1.4508467644
 C      2.6081069712     -0.9701500863      1.5509674505
 C      3.7123367591     -1.0761009133      0.5070704978
 C      3.4808802184     -1.0862789422     -0.9267626812
 C      2.5547631421     -0.3383490411     -1.4949483437
 C      1.1773765693     -0.8397426918      1.2352283381
 C      0.7118311053     -0.2109267563      0.1874803142
 C     -0.7434090545      0.0086816253     -0.0363313353
 C     -1.2098471141     -0.1007542223     -1.3099307738
 C     -2.5430341586      0.2161890318     -1.8272797495
 C     -3.3468765364      1.4073413914     -1.2847276858
 C     -3.4864166046      1.5994727482      0.0463785597
 C     -2.9968863867      0.6671712707      1.0968642711
 C     -1.5642321225      0.2373008232      1.1064411612
 C     -3.3087969404     -0.7566621383      0.9781781329
 C     -3.3486500372     -1.4957534967     -0.1306804199
 C     -2.9620839605     -1.1549094351     -1.4349607768
 H      0.9004936574      0.9832605631     -1.4578932354
 H      2.1019677703      2.7478573615     -0.3069007314
 H      3.8511319207      2.3184930714      1.3149768079
 H      4.4496006224      0.1853299346      2.2464310713
 H      2.8111799957     -1.6677974967      2.3528001184
 H      4.5989819003     -1.6160795410      0.8516982371
 H      4.0514145734     -1.7694388174     -1.5509313234
 H      2.3910430238     -0.4023277806     -2.5718974625
 H      0.4456975367     -1.3224795030      1.8725155583
 H     -0.4177219687     -0.2934196758     -2.0436971117
 H     -2.6385135562      0.3144446098     -2.9103793454
 H     -3.6140359259      2.1935464809     -1.9906558903
 H     -3.9037529783      2.5976705450      0.2296286427
 H     -3.2698781267      1.1679227355      2.0430482325
 H     -1.1091993813      0.1571573874      2.0842200426
 H     -3.5522997474     -1.2391228358      1.9171225046
 H     -3.6185707192     -2.5486456794     -0.1770635082
 H     -3.0217125522     -1.9166126502     -2.2042709422
38
# ORCA AIMD Position Step 12, t=6.00 fs, E_Pot=-772.10724562 Hartree, Unit is Angstrom
 C      1.6388444057      0.6092305217     -0.7331987378
 C      2.3767406848      1.7533312864      0.0482226485
 C      3.3539632153      1.4432807930      0.9120629416
 C      3.7232872383      0.0827881489      1.4532632779
 C      2.6062704418     -0.9702000599      1.5500466147
 C      3.7109838103     -1.0746173797      0.5058769305
 C      3.4836215755     -1.0901775178     -0.9284625578
 C      2.5580979746     -0.3410858389     -1.4950854383
 C      1.1745210668     -0.8413184311      1.2369695692
 C      0.7134634005     -0.2171232483      0.1833387665
 C     -0.7411075974      0.0056890929     -0.0368358297
 C     -1.2076987479     -0.1040720582     -1.3103797046
 C     -2.5399060557      0.2137559969     -1.8274389113
 C     -3.3494713597      1.4049495280     -1.2856847749
 C     -3.4849495339      1.5978676947      0.0450223185
 C     -2.9946792266      0.6668886483      1.0987239593
 C     -1.5600409658      0.2344316147      1.1071055838
 C     -3.3101445158     -0.7561297602      0.9796712725
 C     -3.3489555818     -1.4951150135     -0.1330938345
 C     -2.9599918746     -1.1577460132     -1.4359137536
 H      0.9104122479      0.9726215361     -1.4487516673
 H      2.0964180401      2.7550308302     -0.3014502991
 H      3.8542248660      2.3130899858      1.3135525379
 H      4.4487690586      0.1811149362      2.2444289088
 H      2.8079952490     -1.6712924500      2.3424155493
 H      4.6037205565     -1.6139071469      0.8538878396
 H      4.0521188710     -1.7796248618     -1.5516592746
 H      2.3898896792     -0.4076967780     -2.5773611482
 H      0.4436037841     -1.3179855247      1.8710316517
 H     -0.4071056252     -0.2848642167     -2.0485985699
 H     -2.6368125885      0.3115847191     -2.9121441214
 H     -3.6072004199      2.1867950612     -1.9850013445
 H     -3.8939156877      2.6013139663      0.2276420687
 H     -3.2614500219      1.1600637695      2.0246568540
 H     -1.1126795381      0.1534066837      2.0724461196
 H     -3.5506653960     -1.2295240770      1.8982127645
 H     -3.6224692247     -2.5338364975     -0.1791196610
 H     -3.0269161828     -1.9144663831     -2.1985538064
38
# ORCA AIMD Position Step 13, t=6.50 fs, E_Pot=-772.10219872 Hartree, Unit is Angstrom
 C      1.6420866258      0.6073349764     -0.7322273053
 C      2.3756253653      1.7557995221      0.0541410589
 C      3.3592018235      1.4427332459      0.9132128632
 C      3.7275716826      0.0810421347      1.4554362313
 C      2.6045560552     -0.9703964462      1.5492130063
 C      3.7099707258     -1.0732962151      0.5048528600
 C      3.4864526404     -1.0941271740     -0.9301877287
 C      2.5613173051     -0.3436817511     -1.4953365083
 C      1.1718516885     -0.8430244321      1.2388663828
 C      0.7150470546     -0.2230494948      0.1789500405