38
# ORCA AIMD Force Step 0, t=0.00 fs, E_Pot=-772.15917503 Hartree, Unit is Hartree/Angstrom
 C      0.0000000000      0.0000000000      0.0000000000
 C      0.0000000000      0.0000000000      0.0000000000
 C      0.0000000000      0.0000000000      0.0000000000
 C      0.0000000000      0.0000000000      0.0000000000
 C      0.0000000000      0.0000000000      0.0000000000
 C      0.0000000000      0.0000000000      0.0000000000
 C      0.0000000000      0.0000000000      0.0000000000
 C      0.0000000000      0.0000000000      0.0000000000
 C      0.0000000000      0.0000000000      0.0000000000
 C      0.0000000000      0.0000000000      0.0000000000
 C      0.0000000000      0.0000000000      0.0000000000
 C      0.0000000000      0.0000000000      0.0000000000
 C      0.0000000000      0.0000000000      0.0000000000
 C      0.0000000000      0.0000000000      0.0000000000
 C      0.0000000000      0.0000000000      0.0000000000
 C      0.0000000000      0.0000000000      0.0000000000
 C      0.0000000000      0.0000000000      0.0000000000
 C      0.0000000000      0.0000000000      0.0000000000
 C      0.0000000000      0.0000000000      0.0000000000
 C      0.0000000000      0.0000000000      0.0000000000
 H      0.0000000000      0.0000000000      0.0000000000
 H      0.0000000000      0.0000000000      0.0000000000
 H      0.0000000000      0.0000000000      0.0000000000
 H      0.0000000000      0.0000000000      0.0000000000
 H      0.0000000000      0.0000000000      0.0000000000
 H      0.0000000000      0.0000000000      0.0000000000
 H      0.0000000000      0.0000000000      0.0000000000
 H      0.0000000000      0.0000000000      0.0000000000
 H      0.0000000000      0.0000000000      0.0000000000
 H      0.0000000000      0.0000000000      0.0000000000
 H      0.0000000000      0.0000000000      0.0000000000
 H      0.0000000000      0.0000000000      0.0000000000
 H      0.0000000000      0.0000000000      0.0000000000
 H      0.0000000000      0.0000000000      0.0000000000
 H      0.0000000000      0.0000000000      0.0000000000
 H      0.0000000000      0.0000000000      0.0000000000
 H      0.0000000000      0.0000000000      0.0000000000
 H      0.0000000000      0.0000000000      0.0000000000
38
# ORCA AIMD Force Step 1, t=0.50 fs, E_Pot=-772.15729584 Hartree, Unit is Hartree/Angstrom
 C     -0.0078470392      0.0032952204     -0.0067071956
 C     -0.0038866439     -0.0150563268     -0.0061505604
 C      0.0026851448      0.0059340544      0.0058408556
 C     -0.0019373094      0.0128231224      0.0009974906
 C      0.0030975482     -0.0072929034      0.0073908107
 C     -0.0008444808      0.0031418414      0.0011641604
 C     -0.0009616885      0.0017992215      0.0017166268
 C     -0.0026736056      0.0043103755      0.0066824045
 C      0.0003582478     -0.0080479723      0.0098114034
 C     -0.0025643724      0.0097912964     -0.0080367617
 C     -0.0027718809      0.0015372205      0.0122609037
 C      0.0004147558      0.0094340951     -0.0003765600
 C     -0.0084553288      0.0040252077      0.0003143143
 C      0.0014954989      0.0030807179      0.0006920755
 C      0.0017023287      0.0004537609     -0.0158576694
 C     -0.0075062391      0.0167866412      0.0206433481
 C      0.0146352038     -0.0005164295      0.0104853627
 C     -0.0074657262     -0.0112948376      0.0381615354
 C     -0.0007767354     -0.0210501888     -0.0232511203
 C     -0.0078322090     -0.0084537321      0.0004600927
 H      0.0109102982     -0.0029501212      0.0086439072
 H      0.0002132179      0.0070643593      0.0000075697
 H     -0.0030723885     -0.0072888464     -0.0012120513
 H     -0.0068632587     -0.0035180295     -0.0065184294
 H     -0.0030689800      0.0029748467     -0.0042351208
 H      0.0037029281     -0.0093903893      0.0008674500
 H      0.0023141501     -0.0018584964     -0.0008067256
 H     -0.0006801448     -0.0007922690     -0.0079260924
 H      0.0044071942      0.0023062038     -0.0033532952
 H      0.0063820469     -0.0023033245     -0.0084233480
 H      0.0032763824     -0.0010984821     -0.0023567083
 H      0.0032034574     -0.0096135859      0.0083911693
 H     -0.0020724527      0.0010051091      0.0055092771
 H      0.0058183071     -0.0120336183     -0.0195619524
 H     -0.0072804267      0.0017786968     -0.0159355621
 H      0.0079154475      0.0119278511     -0.0217665486
 H      0.0045793814      0.0128648065      0.0051332265
 H      0.0010564901      0.0059897422      0.0072838218
38
# ORCA AIMD Force Step 2, t=1.00 fs, E_Pot=-772.15231752 Hartree, Unit is Hartree/Angstrom
 C     -0.0153930904      0.0058135040     -0.0122190800
 C     -0.0071257476     -0.0298023721     -0.0116453885
 C      0.0051134276      0.0116068439      0.0107560092
 C     -0.0040257719      0.0261157501      0.0014296437
 C      0.0069832604     -0.0138374659      0.0145249104
 C     -0.0008096718      0.0056418441      0.0021196654
 C     -0.0018808296      0.0039546884      0.0032633432
 C     -0.0051605622      0.0086328340      0.0138027531
 C      0.0013076024     -0.0146425530      0.0183184707
 C     -0.0050362529      0.0186316867     -0.0149751092
 C     -0.0054472130      0.0015763497      0.0237323310
 C     -0.0040734584      0.0131743743      0.0003448596
 C     -0.0171599491      0.0086295498      0.0001812267
 C      0.0038518323      0.0058695218      0.0026996320
 C      0.0035692877      0.0011291840     -0.0311683884
 C     -0.0134138542      0.0317411275      0.0369929473
 C      0.0252636503     -0.0011953939      0.0185622564
 C     -0.0131307436     -0.0174691879      0.0705288803
 C     -0.0026147629     -0.0412803488     -0.0446983015
 C     -0.0087577581     -0.0123252899      0.0001690125
 H      0.0210018159     -0.0047884229      0.0165206791
 H      0.0007337094      0.0138979177      0.0000844445
 H     -0.0049033253     -0.0134416362     -0.0022738460
 H     -0.0118558675     -0.0066580895     -0.0126161592
 H     -0.0049761674      0.0063008127     -0.0077749487
 H      0.0078472186     -0.0178413193      0.0014275810
 H      0.0045241792     -0.0037585145     -0.0016461345
 H     -0.0013930609     -0.0013779797     -0.0153707941
 H      0.0092608222      0.0038949112     -0.0055025032
 H      0.0109872516     -0.0064769362     -0.0159474667
 H      0.0065830650     -0.0019303134     -0.0051539363
 H      0.0057927067     -0.0173582291      0.0154198731
 H     -0.0033833955      0.0013118798      0.0107235652
 H      0.0107633176     -0.0231161960     -0.0358221772
 H     -0.0134930538      0.0025453162     -0.0291881666
 H      0.0119434280      0.0203164888     -0.0390642082
 H      0.0065581952      0.0243125336      0.0097015522
 H      0.0015344527      0.0119844503      0.0137752692
38
# ORCA AIMD Force Step 3, t=1.50 fs, E_Pot=-772.14534307 Hartree, Unit is Hartree/Angstrom
 C     -0.0217785751      0.0071159392     -0.0163491903
 C     -0.0099405523     -0.0430457585     -0.0168670651
 C      0.0066609439      0.0164861790      0.0148903030
 C     -0.0070948319      0.0390680762      0.0010922805
 C      0.0106924923     -0.0197551753      0.0206884415
 C      0.0003161191      0.0067871915      0.0034040687
 C     -0.0025372907      0.0058648248      0.0045340929
 C     -0.0076488088      0.0127784752      0.0194873346
 C      0.0027285861     -0.0204834821      0.0259831483
 C     -0.0074644005      0.0271601380     -0.0215417390
 C     -0.0078796436      0.0015241695      0.0348296039
 C     -0.0074200462      0.0161867673     -0.0002134192
 C     -0.0256787690      0.0129765929     -0.0005137486
 C      0.0069339343      0.0073777899      0.0054430909
 C      0.0048422442      0.0025487211     -0.0451849091
 C     -0.0179040122      0.0448251539      0.0489910352
 C      0.0340647898     -0.0017088353      0.0238864655
 C     -0.0176635412     -0.0210467049      0.0979592437
 C     -0.0042107100     -0.0594327591     -0.0658060680
 C     -0.0097431334     -0.0150349280      0.0007313851
 H      0.0296892397     -0.0054914881      0.0227637807
 H      0.0013483120      0.0194351907      0.0003738423
 H     -0.0061111655     -0.0185442526     -0.0028482785
 H     -0.0157872758     -0.0096990827     -0.0176512681
 H     -0.0066656733      0.0091087255     -0.0104719779
 H      0.0108438302     -0.0250872167      0.0016109654
 H      0.0064269040     -0.0053738717     -0.0022293880
 H     -0.0020115566     -0.0018888887     -0.0214543261
 H      0.0134761109      0.0049936623     -0.0070567602
 H      0.0144356218     -0.0098420739     -0.0220920685
 H      0.0097469226     -0.0027396153     -0.0073529369
 H      0.0076012055     -0.0236944636      0.0210667089
 H     -0.0042334392      0.0009346391      0.0154467108
 H      0.0144878093     -0.0324737362     -0.0477326693
 H     -0.0182873999      0.0031780311     -0.0394095885
 H      0.0149658932      0.0263571319     -0.0518801463
 H      0.0081988010      0.0335781445      0.0144979427
 H      0.0021691849      0.0168578840      0.0190060669
38
# ORCA AIMD Force Step 4, t=2.00 fs, E_Pot=-772.13766438 Hartree, Unit is Hartree/Angstrom
 C     -0.0267532605      0.0072625065     -0.0189089865
 C     -0.0124427932     -0.0542736459     -0.0219797280
 C      0.0071995295      0.0202981246      0.0181636103
 C     -0.0113196029      0.0514580862     -0.0002593077
 C      0.0141630308     -0.0248109790      0.0256421514
 C      0.0030322300      0.0062903020      0.0052203555
 C     -0.0027416079      0.0073162737      0.0054433686
 C     -0.0102426182      0.0167162778      0.0231145629
 C      0.0048128806     -0.0253600692      0.0325097717
 C     -0.0097310099      0.0352717208     -0.0275725463
 C     -0.0100920800      0.0013760749      0.0453015701
 C     -0.0089619280      0.0183208116     -0.0025474043
 C     -0.0339625579      0.0169701413     -0.0018514813
 C      0.0107453891      0.0074242389      0.0090612309
 C      0.0055347576      0.0047622059     -0.0577116303
 C     -0.0209946741      0.0558844521      0.0567222271
 C      0.0407674832     -0.0020435653      0.0262899733
 C     -0.0209841432     -0.0222557704      0.1201615198
 C     -0.0054070934     -0.0747305364     -0.0860485646
 C     -0.0107616430     -0.0163461549      0.0023182107
 H      0.0366907473     -0.0050504703      0.0271742016
 H      0.0021823694      0.0231442566      0.0010387298
 H     -0.0065941318     -0.0223508780     -0.0028574561
 H     -0.0184490531     -0.0125544877     -0.0213779687
 H     -0.0080599720      0.0112126480     -0.0121210063
 H      0.0121325892     -0.0307487140      0.0012146637
 H      0.0078648277     -0.0065228480     -0.0024099145
 H     -0.0024457962     -0.0022870436     -0.0255694777
 H      0.0168246564      0.0054758274     -0.0078416059
 H      0.0160772888     -0.0122170588     -0.0262179388
 H      0.0127467214     -0.0035199157     -0.0088187107
 H      0.0085720609     -0.0283540022      0.0250983114
 H     -0.0045898508     -0.0002560249      0.0196132169
 H      0.0170328172     -0.0399654726     -0.0554451767
 H     -0.0215388569      0.0036460391     -0.0463481571
 H      0.0169630277      0.0301175047     -0.0602559756
 H      0.0093653760      0.0401470146      0.0193545240
 H      0.0029208895      0.0203761584      0.0227393951
38
# ORCA AIMD Force Step 5, t=2.50 fs, E_Pot=-772.13044247 Hartree, Unit is Hartree/Angstrom
 C     -0.0301279158      0.0063394557     -0.0198095303
 C     -0.0147453428     -0.0630849905     -0.0270950298
 C      0.0066239019      0.0228836882      0.0204722048
 C     -0.0167470503      0.0630387671     -0.0027755672
 C      0.0173042675     -0.0288397561      0.0292361675
 C      0.0076508372      0.0040495185      0.0076987762
 C     -0.0024181290      0.0081972122      0.0059057966
 C     -0.0130083620      0.0203993220      0.0241937771
 C      0.0076253343     -0.0290652342      0.0376082753
 C     -0.0117428794      0.0428143654     -0.0328528792
 C     -0.0120589976      0.0011200192      0.0548250469
 C     -0.0082341586      0.0195496947     -0.0068976333
 C     -0.0419050923      0.0205591553     -0.0038498146
 C      0.0152323597      0.0059112981      0.0135682528
 C      0.0057175857      0.0077064788     -0.0686106701
 C     -0.0227677497      0.0648331922      0.0604257032
 C      0.0452171687     -0.0021932450      0.0257450010
 C     -0.0230851384     -0.0214773935      0.1368987090
 C     -0.0061090620     -0.0865586320     -0.1046741553
 C     -0.0117643036     -0.0160788836      0.0049874734
 H      0.0418094069     -0.0035186839      0.0296540908
 H      0.0033477078      0.0246313860      0.0022174317
 H     -0.0062846543     -0.0246801845     -0.0022520435
 H     -0.0196992071     -0.0151373891     -0.0236154383
 H     -0.0090895217      0.0124661142     -0.0125855379
 H      0.0113621500     -0.0346323532      0.0001108034
 H      0.0087427230     -0.0070913389     -0.0020961271
 H     -0.0026117093     -0.0025411916     -0.0272117105
 H      0.0191450038      0.0052678241     -0.0077446283
 H      0.0154499479     -0.0135387477     -0.0278863222
 H      0.0155564615     -0.0042637563     -0.0094771825
 H      0.0087060567     -0.0311736730      0.0273860589
 H     -0.0044852325     -0.0022543061      0.0232017844
 H      0.0184795058     -0.0455489477     -0.0592448544
 H     -0.0231940437      0.0039250818     -0.0498995489
 H      0.0179563826      0.0317397873     -0.0643989220
 H      0.0099624490      0.0437369267      0.0240840395
 H      0.0037376468      0.0223555233      0.0247945119
38
# ORCA AIMD Force Step 6, t=3.00 fs, E_Pot=-772.12448804 Hartree, Unit is Hartree/Angstrom
 C     -0.0317737916      0.0044672613     -0.0190319923
 C     -0.0168697897     -0.0693552934     -0.0322325360
 C      0.0048980044      0.0241494011      0.0217953028
 C     -0.0233783262      0.0735919479     -0.0065575206
 C      0.0200583656     -0.0317238999      0.0313841862
 C      0.0141947060      0.0001988003      0.0108965131
 C     -0.0015621929      0.0084677732      0.0058999780
 C     -0.0159518386      0.0237543983      0.0225148347
 C      0.0111918655     -0.0314662449      0.0410471803
 C     -0.0134090634      0.0496075995     -0.0371107995
 C     -0.0137864350      0.0007588293      0.0632253616
 C     -0.0051216813      0.0200139283     -0.0132056040
 C     -0.0494700021      0.0237295791     -0.0064772193
 C      0.0203401704      0.0028078225      0.0189103301
 C      0.0055236191      0.0112144169     -0.0777947220
 C     -0.0232799436      0.0715678157      0.0603210562
 C      0.0472899754     -0.0021369022      0.0222872546
 C     -0.0239496921     -0.0190665994      0.1478797575
 C     -0.0062440074     -0.0944377792     -0.1209510628
 C     -0.0127001786     -0.0141578675      0.0087454327
 H      0.0448956748     -0.0009555419      0.0301409845
 H      0.0049027154      0.0237900623      0.0039587524
 H     -0.0051792231     -0.0254542504     -0.0010348358
 H     -0.0194861733     -0.0173739330     -0.0242771658
 H     -0.0097075970      0.0127853015     -0.0118100782
 H      0.0084579271     -0.0367661748     -0.0017307037
 H      0.0090194232     -0.0070133692     -0.0012537869
 H     -0.0024554544     -0.0026284841     -0.0261712780
 H      0.0203542161      0.0043584616     -0.0067330172
 H      0.0124537308     -0.0139277998     -0.0270410928
 H      0.0181560891     -0.0049606176     -0.0093309260
 H      0.0080307202     -0.0320647816      0.0278666622
 H     -0.0040173225     -0.0049392976      0.0262229994
 H      0.0188998215     -0.0492033839     -0.0593845407
 H     -0.0232378932      0.0039975618     -0.0500509995
 H      0.0179644641      0.0313345846     -0.0644748577
 H      0.0099273539      0.0442115482      0.0285117230
 H      0.0045665728      0.0226956676      0.0250732025
38
# ORCA AIMD Force Step 7, t=3.50 fs, E_Pot=-772.12014802 Hartree, Unit is Hartree/Angstrom
 C     -0.0315829077      0.0017472327     -0.0165616728
 C     -0.0187878477     -0.0732414068     -0.0373522350
 C      0.0020087310      0.0240679188      0.0221401152
 C     -0.0311540807      0.0829259416     -0.0116437111
 C      0.0223957613     -0.0334052917      0.0320785770
 C      0.0223863810     -0.0049449990      0.0147397133
 C     -0.0002522645      0.0081717623      0.0054528714
 C     -0.0190407213      0.0267310403      0.0182132061
 C      0.0154820302     -0.0324769839      0.0426322960
 C     -0.0146665642      0.0555353311     -0.0401105595
 C     -0.0152571856      0.0002792489      0.0702498047
 C      0.0001419610      0.0199871751     -0.0210750580
 C     -0.0565766129      0.0264165529     -0.0095946452
 C      0.0260151061     -0.0018899435      0.0249797501
 C      0.0051069123      0.0150396602     -0.0852163521
 C     -0.0225813639      0.0760070165      0.0564845308
 C      0.0469079772     -0.0018693227      0.0159231726
 C     -0.0235168760     -0.0152706750      0.1526840247
 C     -0.0057491599     -0.0980035481     -0.1343076999
 C     -0.0135296001     -0.0105532288      0.0135258131
 H      0.0458321073      0.0025652669      0.0286067178
 H      0.0068457475      0.0207713517      0.0062241436
 H     -0.0033021440     -0.0246504755      0.0007711142
 H     -0.0178112383     -0.0192026757     -0.0233337305
 H     -0.0098831857      0.0121328042     -0.0097970262
 H      0.0036550508     -0.0373734047     -0.0042172789
 H      0.0087209056     -0.0062928289      0.0000852058
 H     -0.0019620411     -0.0025402240     -0.0225540703
 H      0.0204149808      0.0027597035     -0.0048093490
 H      0.0073074431     -0.0136133441     -0.0239268589
 H      0.0205191788     -0.0055944608     -0.0084452170
 H      0.0065929840     -0.0309954146      0.0265354726
 H     -0.0033286675     -0.0080866278      0.0287077539
 H      0.0183177844     -0.0508531711     -0.0559546416
 H     -0.0216435713      0.0038442841     -0.0467498466
 H      0.0169535778      0.0288947148     -0.0604328177
 H      0.0092091079      0.0414928778      0.0324856896
 H      0.0053574958      0.0213831035      0.0235747919
38
# ORCA AIMD Force Step 8, t=4.00 fs, E_Pot=-772.11728985 Hartree, Unit is Hartree/Angstrom
 C     -0.0294689931     -0.0017116300     -0.0123925488
 C     -0.0204567847     -0.0751063819     -0.0423282444
 C     -0.0019700406      0.0226565624      0.0215404374
 C     -0.0399234657      0.0908376972     -0.0179786576
 C      0.0242694981     -0.0338799399      0.0313919518
 C      0.0316624238     -0.0109166109      0.0189922020
 C      0.0013965319      0.0073981471      0.0046365935
 C     -0.0221551530      0.0292740949      0.0117830159
 C      0.0204064230     -0.0320639388      0.0422538967
 C     -0.0154459737      0.0604561860     -0.0416471564
 C     -0.0164862245     -0.0003037037      0.0756412083
 C      0.0070314406      0.0197662377     -0.0298137769
 C     -0.0630594646      0.0285418460     -0.0130000394
 C      0.0321352630     -0.0081423801      0.0316506447
 C      0.0046350206      0.0188733717     -0.0907082877
 C     -0.0206366348      0.0779375050      0.0488135463
 C      0.0439886957     -0.0013534436      0.0066740848
 C     -0.0217027980     -0.0101404246      0.1507530803
 C     -0.0045782126     -0.0969536859     -0.1441647032
 C     -0.0141990614     -0.0053395476      0.0191690362
 H      0.0445189288      0.0069601469      0.0250393048
 H      0.0090923689      0.0159741429      0.0088829617
 H     -0.0007074997     -0.0222978078      0.0031161782
 H     -0.0147387825     -0.0205701331     -0.0208229556
 H     -0.0096033144      0.0105248642     -0.0066251337
 H     -0.0025365754     -0.0368059980     -0.0071398983
 H      0.0079075831     -0.0049846113      0.0018461276
 H     -0.0011744100     -0.0022860269     -0.0168125275
 H      0.0193578392      0.0005408284     -0.0020406661
 H      0.0005262015     -0.0128674319     -0.0190594365
 H      0.0225994639     -0.0061396964     -0.0069851346
 H      0.0044491890     -0.0279320017      0.0233829480
 H     -0.0025532428     -0.0114297365      0.0306686861
 H      0.0167121922     -0.0503504329     -0.0489030766
 H     -0.0183992091      0.0034441990     -0.0399708696
 H      0.0148446864      0.0243133097     -0.0520556129
 H      0.0077558498      0.0355344470      0.0358550873
 H      0.0060548793      0.0184588398      0.0203509535
38
# ORCA AIMD Force Step 9, t=4.50 fs, E_Pot=-772.11536776 Hartree, Unit is Hartree/Angstrom
 C     -0.0253507368     -0.0058309569     -0.0065311530
 C     -0.0216439997     -0.0755436799     -0.0469026927
 C     -0.0069677118      0.0200788929      0.0200795600
 C     -0.0495263278      0.0972337942     -0.0254940834
 C      0.0257414539     -0.0332298242      0.0294565338
 C      0.0413468165     -0.0172503747      0.0234175910
 C      0.0032012881      0.0063181664      0.0036186053
 C     -0.0251903745      0.0313699841      0.0039134545
 C      0.0258569723     -0.0302798131      0.0398964873
 C     -0.0157741375      0.0643250194     -0.0416128628
 C     -0.0174601190     -0.0009793547      0.0793064714
 C      0.0147836065      0.0196623920     -0.0385859001
 C     -0.0688969480      0.0301783758     -0.0164778507
 C      0.0386268615     -0.0158135323      0.0387898079
 C      0.0042586716      0.0224176200     -0.0943871256
 C     -0.0174194119      0.0770920338      0.0370513617
 C      0.0385883683     -0.0005915050     -0.0054466909
 C     -0.0183693918     -0.0037123666      0.1414095268
 C     -0.0027261334     -0.0911415477     -0.1500151637
 C     -0.0146563679      0.0013492478      0.0255125617
 H      0.0408852642      0.0121512848      0.0194381541
 H      0.0115018622      0.0099801781      0.0117216795
 H      0.0024647559     -0.0185826498      0.0058862875
 H     -0.0103937988     -0.0214483994     -0.0168506916
 H     -0.0088866106      0.0080506774     -0.0024448872
 H     -0.0094993874     -0.0354467693     -0.0102445302
 H      0.0067129289     -0.0032209429      0.0038763937
 H     -0.0001665618     -0.0018837395     -0.0096026798
 H      0.0172526472     -0.0022095524      0.0014651217
 H     -0.0071301872     -0.0119982111     -0.0131644499
 H      0.0243534288     -0.0065816827     -0.0051108232
 H      0.0017084398     -0.0230193429      0.0185632032
 H     -0.0018417029     -0.0146818294      0.0321281864
 H      0.0139975335     -0.0474341447     -0.0379533141
 H     -0.0135161192      0.0027790127     -0.0297220731
 H      0.0115283485      0.0174206572     -0.0390058998
 H      0.0055464956      0.0264037015      0.0385003223
 H      0.0066149812      0.0140039925      0.0154945224
38
# ORCA AIMD Force Step 10, t=5.00 fs, E_Pot=-772.11356982 Hartree, Unit is Hartree/Angstrom
 C     -0.0192095441     -0.0104931961      0.0009625445
 C     -0.0221977043     -0.0751278594     -0.0508573031
 C     -0.0128209750      0.0165352160      0.0178812444
 C     -0.0596681899      0.1019896637     -0.0339503243
 C      0.0268336693     -0.0315890733      0.0264902303
 C      0.0507136371     -0.0234795716      0.0276965484
 C      0.0049356466      0.0051506264      0.0025517601
 C     -0.0279390234      0.0329579801     -0.0045651814
 C      0.0316354947     -0.0272593078      0.0356535951
 C     -0.0156337636      0.0670733062     -0.0398789332
 C     -0.0182118537     -0.0017296847      0.0810731940
 C      0.0226133137      0.0199153063     -0.0466031593
 C     -0.0739064907      0.0312387422     -0.0197704146
 C      0.0453338570     -0.0247014826      0.0461107212
 C      0.0040967273      0.0253949914     -0.0960606501
 C     -0.0128465941      0.0731746954      0.0208979001
 C      0.0308096752      0.0004489699     -0.0201649310
 C     -0.0134130696      0.0041607382      0.1242524450
 C     -0.0002068647     -0.0806850636     -0.1516215108
 C     -0.0148688772      0.0092175254      0.0322127877
 H      0.0349265251      0.0180305555      0.0118657792
 H      0.0139022032      0.0034022622      0.0145104923
 H      0.0060600623     -0.0137232590      0.0089550928
 H     -0.0050117669     -0.0218319279     -0.0116480495
 H     -0.0077743548      0.0048700659      0.0025119983
 H     -0.0165515319     -0.0336704748     -0.0132430768
 H      0.0052772738     -0.0011564346      0.0060124748
 H      0.0009537579     -0.0013597951     -0.0016981873
 H      0.0142889123     -0.0053262324      0.0055037482
 H     -0.0149196208     -0.0112239910     -0.0069340238
 H      0.0257231481     -0.0068920905     -0.0030379596
 H     -0.0015171344     -0.0164087215      0.0122324909
 H     -0.0013088863     -0.0175730207      0.0330869512
 H      0.0100862440     -0.0418386012     -0.0228412701
 H     -0.0071089760      0.0018454954     -0.0162264235
 H      0.0069032277      0.0080581796     -0.0210063008
 H      0.0025809604      0.0142823213      0.0403252615
 H      0.0070029331      0.0082699205      0.0092716569
38
# ORCA AIMD Force Step 11, t=5.50 fs, E_Pot=-772.11105139 Hartree, Unit is Hartree/Angstrom
 C     -0.0112099039     -0.0155489490      0.0098923167
 C     -0.0219431282     -0.0744315408     -0.0539607781
 C     -0.0192700606      0.0123642858      0.0151454129
 C     -0.0699511935      0.1050833878     -0.0429754809
 C      0.0276011298     -0.0292010775      0.0228173363
 C      0.0591145395     -0.0292419835      0.0315181417
 C      0.0063812871      0.0041212383      0.0016094323
 C     -0.0302135160      0.0340090699     -0.0128390741
 C      0.0374820975     -0.0232226623      0.0297512616
 C     -0.0150685127      0.0686975682     -0.0364302072
 C     -0.0187411643     -0.0025349422      0.0808471440
 C      0.0297976559      0.0206692612     -0.0531733985
 C     -0.0779539655      0.0317129854     -0.0226324538
 C      0.0520579421     -0.0344206390      0.0532012344
 C      0.0042355300      0.0275839028     -0.0956307265
 C     -0.0068982332      0.0659623079      0.0002134043
 C      0.0209862895      0.0017651247     -0.0368678565
 C     -0.0068391774      0.0134881006      0.0994158292
 C      0.0028787932     -0.0660804209     -0.1488867831
 C     -0.0148153054      0.0178142971      0.0388011637
 H      0.0268084614      0.0244307534      0.0025317071
 H      0.0161057997     -0.0031431733      0.0170124842
 H      0.0098457017     -0.0080864691      0.0121348692
 H      0.0010611885     -0.0217473048     -0.0055733596
 H     -0.0063413491      0.0012341946      0.0079198790
 H     -0.0230756170     -0.0317851598     -0.0158706929
 H      0.0037549146      0.0010289944      0.0080753805
 H      0.0020691354     -0.0007463383      0.0061319594
 H      0.0107387964     -0.0085994436      0.0098023454
 H     -0.0221544739     -0.0106942281     -0.0009885142
 H      0.0266525626     -0.0070483415     -0.0009763677
 H     -0.0050532050     -0.0084591771      0.0047318921
 H     -0.0010456502     -0.0198685104      0.0335438818
 H      0.0049282809     -0.0333718507     -0.0034337961
 H      0.0005334695      0.0006688716     -0.0000648498
 H      0.0009751144     -0.0037241780      0.0017819030
 H     -0.0010676305     -0.0003592341      0.0412815594
 H      0.0072044040      0.0016334057      0.0020737803
38
# ORCA AIMD Force Step 12, t=6.00 fs, E_Pot=-772.10724562 Hartree, Unit is Hartree/Angstrom
 C     -0.0017388382     -0.0207640671      0.0198565762
 C     -0.0206978794     -0.0739336154     -0.0560241307
 C     -0.0260252854      0.0080274847      0.0121212994
 C     -0.0798781869      0.1065469246     -0.0520642821
 C      0.0281500450     -0.0263896794      0.0188269777
 C      0.0660557876     -0.0342923596      0.0346379206
 C      0.0073150373      0.0034700837      0.0009649887
 C     -0.0318395909      0.0344897290     -0.0202223955
 C      0.0430817931     -0.0184769790      0.0225285501
 C     -0.0141529396      0.0692503683     -0.0312999420
 C     -0.0190489821     -0.0033806577      0.0785921232
 C      0.0357391405      0.0219915384     -0.0578050395
 C     -0.0809310194      0.0316020326     -0.0248608040
 C      0.0585776288     -0.0443868557      0.0594805102
 C      0.0047141477      0.0288484754     -0.0930148108
 C      0.0003025343      0.0555419974     -0.0246859643
 C      0.0097350621      0.0033112615     -0.0544034477
 C      0.0011124559      0.0239001348      0.0680479218
 C      0.0063067746     -0.0483654996     -0.1419360834
 C     -0.0145040315      0.0265449813      0.0446628230
 H      0.0169344044      0.0311038304     -0.0081445242
 H      0.0179518570     -0.0091491551      0.0190278733
 H      0.0135278079     -0.0021559698      0.0151944292
 H      0.0073533011     -0.0212533321      0.0008699679
 H     -0.0046927435     -0.0025223528      0.0133847037
 H     -0.0285952257     -0.0300091683     -0.0179212613
 H      0.0022978997      0.0031546345      0.0098902534
 H      0.0030739777     -0.0000724942      0.0132408170
 H      0.0069599767     -0.0117813811      0.0140218896
 H     -0.0282918038     -0.0104908519      0.0041948582
 H      0.0270937413     -0.0070337446      0.0009020822
 H     -0.0086757298      0.0002550385     -0.0034110314
 H     -0.0011142949     -0.0214010718      0.0334970928
 H     -0.0013960106     -0.0221087344      0.0199539522
 H      0.0088713216     -0.0006762957      0.0176463246
 H     -0.0060225615     -0.0174435166      0.0283222830
 H     -0.0052057684     -0.0166300213      0.0413891686
 H      0.0072381743     -0.0053718162     -0.0055501372
38
# ORCA AIMD Force Step 13, t=6.50 fs, E_Pot=-772.10219872 Hartree, Unit is Hartree/Angstrom
 C      0.0084093847     -0.0257643164      0.0301029416
 C     -0.0184144919     -0.0740049629     -0.0569302029
 C     -0.0326415143      0.0040566573      0.0091247477
 C     -0.0887856418      0.1064645980     -0.0605179229
 C      0.0285598402     -0.0235579924      0.0149939283
 C      0.0711594152     -0.0384550342      0.0368198214
 C      0.0075901037      0.0033714776      0.0007501038
 C     -0.0326871580      0.0344132991     -0.0261354594
 C      0.0480554450     -0.0133913575      0.0144751308