19
	Energy:      19.7784084
C         -6.48836        2.23502        0.63413
C         -4.96528        2.03594        0.61462
C         -4.78231        0.87339       -0.37568
H         -4.56687        1.80920        1.60856
H         -4.47196        2.94273        0.24680
C         -5.29134       -0.42158        0.27985
C         -6.81443       -0.22238        0.29846
H         -4.88372       -0.57352        1.28426
H         -5.03346       -1.29483       -0.32993
C         -6.98884        1.16230       -0.34801
H         -7.22333       -0.26819        1.31274
H         -7.30268       -0.99766       -0.30277
H         -6.74119        3.23956        0.27653
H         -6.90649        2.11434        1.63847
C         -5.88015        1.15871       -1.39979
H         -3.77001        0.79368       -0.77642
H         -5.99353        0.36406       -2.14470
H         -5.76023        2.12299       -1.90477
H         -7.99708        1.34734       -0.72337
