60
# ORCA AIMD Position Step 0, t=0.00 fs, E_Pot=-1207.44801482 Hartree, Unit is Angstrom
 C      0.5503810025     -1.6852240075     -5.9035640264
 C      0.8303820037     -2.1181930095     -4.4649430200
 O      0.3843790017     -1.0701030048     -3.5645290160
 C      0.0061830000     -3.3632890151     -4.1192360184
 C      2.3715610106     -2.2600260101     -4.0984730184
 C      2.8935890130     -3.6939290165     -4.0603730182
 C      3.2771970147     -1.3856940062     -4.9750690223
 O      2.4309230109     -1.7408250078     -2.7435690123
 B      1.2880460058     -1.0022720045     -2.5182740113
 C      1.0359030046     -0.1202210005     -1.2683990057
 C      2.0755340093      0.1688560008     -0.4233960019
 C      2.1467650096      1.2450430056      0.5644110025
 H      3.0950660139      1.2969200058      1.1218030050
 C      0.9558810043      1.8560470083      1.2948880058
 H      1.2315790055      2.2484730101      2.2845720102
 C     -0.3974480018      1.2440420056      1.2678770057
 B     -1.1747150053      1.1861090053      2.6176970117
 O     -0.6747470030      1.7437670078      3.7807350169
 C     -1.5347770069      1.3385140060      4.8798150219
 C     -1.6889610076      2.5218930113      5.8335760261
 C     -0.8374020038      0.1768550008      5.5982700251
 C     -2.8695510129      0.9030170040      4.1342130185
 C     -3.8817310174      2.0462950092      3.9965890179
 C     -3.5520160159     -0.3307620015      4.7217960211
 O     -2.4010870108      0.5781760026      2.7967340125
 C     -0.9394010042      0.7075370032      0.1397630006
 C     -0.2826040013      0.6538070029     -1.2224480055
 H     -0.9866280044      0.1685990008     -1.9231780086
 C      0.1160150005      2.0008630090     -1.7924050080
 C      0.9453410042      2.8685230128     -1.1579170052
 C      1.5554990070      2.6694650120      0.1632820007
 H      2.1893870098      3.5057820157      0.4952510022
 H     -0.5427610024     -1.6046250072     -6.0644910272
 H      0.9498940043     -2.4249550109     -6.6263410297
 H      0.9973350045     -0.6994460031     -6.1263110274
 H     -1.0687170048     -3.1200630140     -4.2278930189
 H      0.1750970008     -3.6754870165     -3.0706780138
 H      0.2409470011     -4.2162520189     -4.7846370214
 H      2.7899650125     -4.1924320188     -5.0443380226
 H      2.3577190106     -4.2897600192     -3.2991520148
 H      3.9665500178     -3.6866980165     -3.7852740170
 H      3.3407250150     -1.7778560080     -6.0097770269
 H      4.2977440192     -1.3733870062     -4.5454630204
 H      2.9137940130     -0.3407470015     -5.0184390225
 H      3.0196690135     -0.3778390017     -0.5911250026
 H     -0.7116670032      2.7542060123      6.3007870282
 H     -2.4079440108      2.2904260103      6.6446670298
 H     -2.0346220091      3.4289510154      5.3053330238
 H      0.1665700007      0.5068390023      5.9293360266
 H     -0.7060830032     -0.6939610031      4.9275350221
 H     -1.4073930063     -0.1487670007      6.4904000291
 H     -4.3365950194      2.3080720103      4.9721210223
 H     -4.6908740210      1.7301110077      3.3101100148
 H     -3.4117080153      2.9549410132      3.5732580160
 H     -3.8463060172     -0.1571890007      5.7764830259
 H     -2.8938480130     -1.2174930055      4.6787150210
 H     -4.4685910200     -0.5617200025      4.1441790186
 H     -1.9420220087      0.2551980011      0.2264620010
 H     -0.1833710008      2.2077730099     -2.8323430127
 H      1.2779500057      3.7641110169     -1.7086260077
60
# ORCA AIMD Position Step 1, t=0.50 fs, E_Pot=-1207.44449788 Hartree, Unit is Angstrom
 C      0.5545013958     -1.6847243540     -5.9015533039
 C      0.8298990288     -2.1094169811     -4.4564452699
 O      0.3885488451     -1.0695607676     -3.5641594479
 C      0.0120530869     -3.3675571085     -4.1156060849
 C      2.3681190215     -2.2561603538     -4.1004740777
 C      2.8904829751     -3.6898892044     -4.0619053517
 C      3.2793994336     -1.3876726152     -4.9765311833
 O      2.4342955412     -1.7423303913     -2.7439333345
 B      1.2835926320     -0.9998904713     -2.5181252424
 C      1.0377523097     -0.1269417158     -1.2700418179
 C      2.0781091279      0.1681410448     -0.4269827261
 C      2.1481848641      1.2428871642      0.5656341645
 H      3.1131559302      1.2903857637      1.1248252070
 C      0.9513998172      1.8562183587      1.2930339483
 H      1.2328156129      2.2467325038      2.2967353920
 C     -0.3946725347      1.2422375475      1.2675631368
 B     -1.1732759089      1.1855443630      2.6183144763
 O     -0.6753032031      1.7468970374      3.7759985611
 C     -1.5353558577      1.3460862529      4.8846502622
 C     -1.6866133754      2.5217788982      5.8322890250
 C     -0.8419527157      0.1741138649      5.5964990718
 C     -2.8723308128      0.9028881299      4.1345998500
 C     -3.8802785658      2.0498106090      3.9959583661
 C     -3.5492596943     -0.3275485902      4.7250435505
 O     -2.4002095762      0.5766965474      2.7954561132
 C     -0.9380845337      0.7157877042      0.1413965796
 C     -0.2836608571      0.6528898373     -1.2227120912
 H     -0.9874009461      0.1669700336     -1.9162453527
 C      0.1122755379      2.0028999660     -1.7921141360
 C      0.9476679321      2.8743952931     -1.1553234937
 C      1.5524833926      2.6707066845      0.1642414663
 H      2.1922180916      3.5186886457      0.4866349019
 H     -0.5312405731     -1.5937246176     -6.0836874277
 H      0.9473282531     -2.4010670935     -6.6128611813
 H      1.0051003626     -0.7030968229     -6.1120449148
 H     -1.0772978769     -3.1242286819     -4.2130368609
 H      0.1656713920     -3.6807076911     -3.0919949788
 H      0.2320387917     -4.2233171384     -4.7913161615
 H      2.8085171302     -4.1969394907     -5.0450609274
 H      2.3680102935     -4.2882300799     -3.2911409702
 H      3.9469487405     -3.6904090563     -3.7731948476
 H      3.3372244325     -1.7854815179     -6.0094621169
 H      4.2858547498     -1.3760383866     -4.5432227150
 H      2.8908490198     -0.3298928296     -5.0154678767
 H      3.0256527551     -0.3705798212     -0.5882554974
 H     -0.7218936119      2.7579550059      6.3013478717
 H     -2.4001411066      2.2843465711      6.6404391650
 H     -2.0352755688      3.4114057210      5.3114300064
 H      0.1818605217      0.4954528751      5.9247821346
 H     -0.7012725807     -0.7060537714      4.9243758691
 H     -1.4174400205     -0.1630883229      6.4879611871
 H     -4.3333014082      2.2960510953      4.9660584975
 H     -4.6951388863      1.7251396320      3.3154542017
 H     -3.4057884171      2.9537511282      3.5687672577
 H     -3.8514515797     -0.1640921571      5.7720260732
 H     -2.8876346997     -1.2157714306      4.6647908554
 H     -4.4777869135     -0.5489725979      4.1442153982
 H     -1.9460792216      0.2649494125      0.2179372465
 H     -0.1803664760      2.2085258477     -2.8410803784
 H      1.2784965034      3.7730465219     -1.7044830681
60
# ORCA AIMD Position Step 2, t=1.00 fs, E_Pot=-1207.43593982 Hartree, Unit is Angstrom
 C      0.5585700757     -1.6841080380     -5.8994609607
 C      0.8294148493     -2.1007084643     -4.4479873659
 O      0.3927572123     -1.0690551559     -3.5637761155
 C      0.0177879226     -3.3717961788     -4.1121238997
 C      2.3646822390     -2.2523044040     -4.1024387474
 C      2.8873387416     -3.6859124922     -4.0634309823
 C      3.2814911119     -1.3895290323     -4.9780204528
 O      2.4375709440     -1.7438105256     -2.7443570756
 B      1.2792477563     -0.9975842159     -2.5180118353
 C      1.0396798861     -0.1335649173     -1.2715562393
 C      2.0806017878      0.1674131314     -0.4306564285
 C      2.1496711296      1.2407760734      0.5668927512
 H      3.1289873227      1.2839181273      1.1265739283
 C      0.9470512699      1.8564369141      1.2912603973
 H      1.2334858257      2.2441973319      2.3068244599
 C     -0.3919598518      1.2403832131      1.2671207012
 B     -1.1718815149      1.1849671640      2.6189633788
 O     -0.6759348231      1.7499827371      3.7712868150
 C     -1.5359208179      1.3535826083      4.8893893091
 C     -1.6842768032      2.5216307982      5.8310540852
 C     -0.8464060343      0.1713199148      5.5947464113
 C     -2.8750515894      0.9027996655      4.1349715860
 C     -3.8788431070      2.0533016437      3.9952615622
 C     -3.5465605684     -0.3244049969      4.7282160299
 O     -2.3992911400      0.5752657345      2.7942576643
 C     -0.9367732941      0.7240385562      0.1431277399
 C     -0.2846768231      0.6519898464     -1.2229790849
 H     -0.9875701313      0.1658666377     -1.9087521388
 C      0.1086506492      2.0050874661     -1.7918010474
 C      0.9498678912      2.8801407006     -1.1528577842
 C      1.5495486556      2.6719831733      0.1652516115
 H      2.1938919306      3.5298432206      0.4777049655
 H     -0.5187679607     -1.5830079777     -6.1024048655
 H      0.9451045852     -2.3777655217     -6.5996451494
 H      1.0125436704     -0.7075213871     -6.0976177162
 H     -1.0838114399     -3.1287358945     -4.1982066009
 H      0.1566464051     -3.6861468968     -3.1125861763
 H      0.2229879554     -4.2290241717     -4.7970919491
 H      2.8269828985     -4.2007544037     -5.0446368534
 H      2.3785907502     -4.2860007214     -3.2842955581
 H      3.9271513498     -3.6938361732     -3.7613769642
 H      3.3336635124     -1.7925638992     -6.0079322294
 H      4.2735397790     -1.3786590897     -4.5411519470
 H      2.8689973952     -0.3214283226     -5.0124419374
 H      3.0305348132     -0.3627900038     -0.5853086703
 H     -0.7325393437      2.7614694321      6.3015579794
 H     -2.3917973540      2.2784002004      6.6355368932
 H     -2.0359860747      3.3938846462      5.3174905682
 H      0.1949945874      0.4835705777      5.9197045546
 H     -0.6968697135     -0.7165519506      4.9221398320
 H     -1.4265887106     -0.1767779394      6.4842272684
 H     -4.3296666412      2.2840575411      4.9595011908
 H     -4.6982612092      1.7206254032      3.3215760321
 H     -3.4004439492      2.9515679727      3.5647603315
 H     -3.8561979096     -0.1710235669      5.7668643205
 H     -2.8824030118     -1.2128012279      4.6510531082
 H     -4.4853509416     -0.5358996714      4.1451605165
 H     -1.9486777769      0.2753991621      0.2093674899
 H     -0.1770667825      2.2091564083     -2.8479888106
 H      1.2785062555      3.7808301883     -1.6995278788
60
# ORCA AIMD Position Step 3, t=1.50 fs, E_Pot=-1207.42394636 Hartree, Unit is Angstrom
 C      0.5625403440     -1.6832672645     -5.8971610945
 C      0.8289198598     -2.0921396166     -4.4396287374
 O      0.3969757488     -1.0685608817     -3.5633735941
 C      0.0232942398     -3.3759456688     -4.1089575307
 C      2.3612725947     -2.2484719848     -4.1043525814
 C      2.8840995969     -3.6820180588     -4.0649547103
 C      3.2833435366     -1.3911881513     -4.9795536878
 O      2.4407224281     -1.7452453878     -2.7448369330
 B      1.2750958491     -0.9953966488     -2.5179291924
 C      1.0416616731     -0.1400521558     -1.2729185384
 C      2.0830044751      0.1666897722     -0.4343999828
 C      2.1512626120      1.2387102268      0.5681998895
 H      3.1417966572      1.2775627847      1.1267187098
 C      0.9429045331      1.8567240954      1.2896253277
 H      1.2333893828      2.2406778792      2.3141651851
 C     -0.3893244898      1.2384919906      1.2665870435
 B     -1.1705427645      1.1843688549      2.6196271927
 O     -0.6766425034      1.7530350130      3.7666246341
 C     -1.5364566523      1.3609346124      4.8939725736
 C     -1.6819568572      2.5213785858      5.8299020953
 C     -0.8507016329      0.1684478402      5.5930156688
 C     -2.8776836970      0.9027877335      4.1353262367
 C     -3.8774147040      2.0567194086      3.9944485768
 C     -3.5439500899     -0.3213592371      4.7312375941
 O     -2.3983333862      0.5738819884      2.7931511928
 C     -0.9354970868      0.7322581415      0.1449042911
 C     -0.2856124916      0.6511303501     -1.2232214315
 H     -0.9873836078      0.1651540136     -1.9009558629
 C      0.1051739115      2.0074566907     -1.7914733889
 C      0.9518892614      2.8857171931     -1.1505537564
 C      1.5467276771      2.6733304556      0.1663287143
 H      2.1941361879      3.5387916985      0.4685321638
 H     -0.5056768953     -1.5724813107     -6.1204776986
 H      0.9441139631     -2.3565369332     -6.5879843032
 H      1.0198266425     -0.7123037417     -6.0831637977
 H     -1.0876303663     -3.1336415825     -4.1835008794
 H      0.1485276664     -3.6924617374     -3.1303972018
 H      0.2138766931     -4.2330703435     -4.8018223799
 H      2.8451797101     -4.2038263418     -5.0430217537
 H      2.3891658535     -4.2830708660     -3.2787750992
 H      3.9082114228     -3.6967423872     -3.7496450286
 H      3.3301023777     -1.7990263672     -6.0052792042
 H      4.2616270841     -1.3811430019     -4.5389517907
 H      2.8488533383     -0.3162656224     -5.0094441438
 H      3.0344654723     -0.3546429457     -0.5824114807
 H     -0.7428778944      2.7648928524      6.3016778111
 H     -2.3832093330      2.2725140560      6.6302571865
 H     -2.0372085458      3.3775555213      5.3228784306
 H      0.2051844157      0.4710680659      5.9140429079
 H     -0.6930968864     -0.7249941922      4.9209682675
 H     -1.4346213098     -0.1896472288      6.4790282354
 H     -4.3259340258      2.2724366308      4.9530907194
 H     -4.7001294337      1.7166959403      3.3284262356
 H     -3.3957310633      2.9485136117      3.5612432721
 H     -3.8605173322     -0.1778829055      5.7615497686
 H     -2.8783625841     -1.2084647434      4.6376032393
 H     -4.4908404298     -0.5225420805      4.1472108217
 H     -1.9496964632      0.2866347276      0.2008777908
 H     -0.1734365921      2.2096269449     -2.8527418954
 H      1.2779904139      3.7874428639     -1.6937752471
60
# ORCA AIMD Position Step 4, t=2.00 fs, E_Pot=-1207.41095605 Hartree, Unit is Angstrom
 C      0.5663685684     -1.6820988822     -5.8945232409
 C      0.8284066347     -2.0837773324     -4.4314223459
 O      0.4011787265     -1.0680497249     -3.5629449726
 C      0.0285016577     -3.3799440965     -4.1062615744
 C      2.3579092984     -2.2446736060     -4.1062032379
 C      2.8807107122     -3.6782135656     -4.0664848178
 C      3.2848367340     -1.3925965239     -4.9811434581
 O      2.4437283873     -1.7466177986     -2.7453705127
 B      1.2712141502     -0.9933662718     -2.5178704834
 C      1.0436751747     -0.1463721235     -1.2741071653
 C      2.0853079198      0.1659909698     -0.4381979212
 C      2.1529817435      1.2366866505      0.5695586640
 H      3.1510529654      1.2713711901      1.1250579186
 C      0.9390184528      1.8570940753      1.2881680542
 H      1.2323866842      2.2360671639      2.3182987816
 C     -0.3867769022      1.2365756868      1.2660011764
 B     -1.1692687479      1.1837403646      2.6202889793
 O     -0.6774269114      1.7560679693      3.7620319190
 C     -1.5369487580      1.3680794326      4.8983449615
 C     -1.6796549066      2.5209546878      5.8288590488
 C     -0.8547960706      0.1654777211      5.5913031717
 C     -2.8802004373      0.9028880375      4.1356625444
 C     -3.8759783381      2.0600170425      3.9934753720
 C     -3.5414497474     -0.3184258721      4.7340408114
 O     -2.3973372926      0.5725422539      2.7921477427
 C     -0.9342765387      0.7404264079      0.1466728649
 C     -0.2864268048      0.6503368955     -1.2234087937
 H     -0.9871226281      0.1646714606     -1.8931368350
 C      0.1018751406      2.0100346223     -1.7911294536
 C      0.9536842301      2.8910850612     -1.1484348345
 C      1.5440410017      2.6747736233      0.1674841726
 H      2.1927865184      3.5452331347      0.4592321082
 H     -0.4923220711     -1.5621308656     -6.1377807571
 H      0.9452572727     -2.3388262321     -6.5791702130
 H      1.0271393020     -0.7169955012     -6.0688050934
 H     -1.0883335886     -3.1389617025     -4.1690219329
 H      0.1417707466     -3.7003317885     -3.1434312003
 H      0.2048032133     -4.2352544028     -4.8054412401
 H      2.8629484111     -4.2061391385     -5.0402378799
 H      2.3994119287     -4.2794883736     -3.2746640768
 H      3.8911381093     -3.6989020899     -3.7377932518
 H      3.3266025133     -1.8048371222     -6.0016688921
 H      4.2509408005     -1.3833945600     -4.5363036666
 H      2.8309184524     -0.3150284064     -5.0065611692
 H      3.0376595860     -0.3463338617     -0.5796947127
 H     -0.7521766610      2.7683894777      6.3019834632
 H     -2.3746963318      2.2665947232      6.6249306270
 H     -2.0394136750      3.3635557434      5.3269703136
 H      0.2118550151      0.4578826057      5.9077922261
 H     -0.6901490571     -0.7310610535      4.9209036397
 H     -1.4414009675     -0.2015594955      6.4722901684
 H     -4.3223495687      2.2615096373      4.9474764697
 H     -4.7007126883      1.7134404871      3.3358984923
 H     -3.3916613064      2.9447727528      3.5581878731
 H     -3.8644044446     -0.1845784618      5.7566544780
 H     -2.8756458561     -1.2027308746      4.6245260199
 H     -4.4939604898     -0.5089615613      4.1504763545
 H     -1.9491235120      0.2987047288      0.1925907768
 H     -0.1694772384      2.2099287696     -2.8551557979
 H      1.2769867876      3.7929539967     -1.6872858932
60
# ORCA AIMD Position Step 5, t=2.50 fs, E_Pot=-1207.39962630 Hartree, Unit is Angstrom
 C      0.5700229602     -1.6805204090     -5.8914326741
 C      0.8278701270     -2.0756855135     -4.4234166318
 O      0.4053419984     -1.0674908084     -3.5624818421
 C      0.0333638469     -3.3837363423     -4.1041501002
 C      2.3546098250     -2.2409179400     -4.1079798189
 C      2.8771275128     -3.6744964403     -4.0680297747
 C      3.2858660226     -1.3937189884     -4.9827953616
 O      2.4465711033     -1.7479128029     -2.7459563348
 B      1.2676741701     -0.9915275259     -2.5178266072
 C      1.0456992400     -0.1524987194     -1.2751021520
 C      2.0875013117      0.1653386007     -0.4420359773
 C      2.1548347592      1.2346998156      0.5709623551
 H      3.1564439698      1.2654006525      1.1215093655
 C      0.9354427202      1.8575540209      1.2869100966
 H      1.2303994713      2.2303362661      2.3189742716
 C     -0.3843241939      1.2346451981      1.2654029983
 B     -1.1680671082      1.1830723479      2.6209314314
 O     -0.6782887696      1.7590978994      3.7575249459
 C     -1.5373830122      1.3749579319      4.9024543495
 C     -1.6773701977      2.5203058175      5.8279437219
 C     -0.8586612808      0.1623969460      5.5895986546
 C     -2.8825770124      0.9031359076      4.1359800540
 C     -3.8745164547      2.0631504935      3.9923085075
 C     -3.5390730705     -0.3156064727      4.7365695134
 O     -2.3963033267      0.5712424514      2.7912573937
 C     -0.9331231860      0.7485326402      0.1483794926
 C     -0.2870782693      0.6496365298     -1.2235097550
 H     -0.9870803438      0.1642474455     -1.8855800115
 C      0.0987816158      2.0128437956     -1.7907578118
 C      0.9552079903      2.8962051867     -1.1465150748
 C      1.5414975135      2.6763262198      0.1687245481
 H      2.1897865510      3.5490172617      0.4499633781
 H     -0.4790605152     -1.5519295198     -6.1542232742
 H      0.9493183017     -2.3258214679     -6.5742738115
 H      1.0346866536     -0.7211437112     -6.0546497343
 H     -1.0856964587     -3.1446725907     -4.1548715486
 H      0.1367435819     -3.7103480037     -3.1500772457
 H      0.1958828067     -4.2354794844     -4.8079627525
 H      2.8801530640     -4.2077095544     -5.0363714098
 H      2.4089826671     -4.2753466145     -3.2719781294
 H      3.8767989236     -3.7001004537     -3.7256207646
 H      3.3232271280     -1.8100057037     -5.9973318674
 H      4.2422181328     -1.3853307787     -4.5329088125
 H      2.8155869338     -0.3180839660     -5.0038825093
 H      3.0403781502     -0.3380711974     -0.5772903589
 H     -0.7597533422      2.7721295097      6.3027372629
 H     -2.3665829756      2.2605367586      6.6199018354
 H     -2.0430295400      3.3528622973      5.3292361337
 H      0.2146353809      0.4440082384      5.9010000904
 H     -0.6881936683     -0.7345736759      4.9218891946
 H     -1.4468706065     -0.2124284816      6.4640358277
 H     -4.3191344401      2.2515631768      4.9432566170
 H     -4.7000595677      1.7109102025      3.3438314970
 H     -3.3882061328      2.9405846367      3.5555354793
 H     -3.8678607189     -0.1910313980      5.7527280583
 H     -2.8743074892     -1.1956576411      4.6118889148
 H     -4.4945625683     -0.4952397259      4.1549828522
 H     -1.9470556915      0.3116174074      0.1846252634
 H     -0.1652254054      2.2100820760     -2.8551877658
 H      1.2755565205      3.7975131777     -1.6801633579
60
# ORCA AIMD Position Step 6, t=3.00 fs, E_Pot=-1207.39184579 Hartree, Unit is Angstrom
 C      0.5734925207     -1.6784871917     -5.8878141837
 C      0.8273082858     -2.0679311840     -4.4156613408
 O      0.4094400023     -1.0668508911     -3.5619742537
 C      0.0378565127     -3.3872806109     -4.1026693829
 C      2.3513921440     -2.2372148797     -4.1096717128
 C      2.8733257017     -3.6708572601     -4.0695934026
 C      3.2863485773     -1.3945351571     -4.9845041523
 O      2.4492341883     -1.7491163026     -2.7465933696
 B      1.2645449321     -0.9899125583     -2.5177862547
 C      1.0477123803     -0.1584064062     -1.2758846162
 C      2.0895719883      0.1647560028     -0.4458985293
 C      2.1568104472      1.2327442540      0.5723941712
 H      3.1578614472      1.2597169240      1.1161039507
 C      0.9322211967      1.8581039658      1.2858560792
 H      1.2274115772      2.2235329992      2.3161420345
 C     -0.3819717369      1.2327122197      1.2648333107
 B     -1.1669450656      1.1823557872      2.6215367259
 O     -0.6792285341      1.7621410311      3.7531197518
 C     -1.5377453228      1.3815094858      4.9062477197
 C     -1.6751036225      2.5194059750      5.8271661408
 C     -0.8622813039      0.1592029307      5.5878867815
 C     -2.8847881427      0.9035661935      4.1362789766
 C     -3.8730123378      2.0660778814      3.9909304279
 C     -3.5368289824     -0.3128914853      4.7387806557
 O     -2.3952321685      0.5699785083      2.7904901300
 C     -0.9320402100      0.7565695384      0.1499689744
 C     -0.2875261383      0.6490571958     -1.2234938877
 H     -0.9875366594      0.1637176768     -1.8785571962
 C      0.0959206904      2.0159008633     -1.7903372255
 C      0.9564173410      2.9010354175     -1.1448010581
 C      1.5390965060      2.6779886330      0.1700513054
 H      2.1851869626      3.5501381069      0.4409295038
 H     -0.4662366847     -1.5418489550     -6.1697333480
 H      0.9568175318     -2.3182306642     -6.5738994680
 H      1.0426681555     -0.7243228234     -6.0407984626
 H     -1.0796799444     -3.1507109862     -4.1411532016
 H      0.1337030855     -3.7228797413     -3.1494489636
 H      0.1872530366     -4.2337553980     -4.8094828765
 H      2.8966716541     -4.2085842449     -5.0315712648
 H      2.4175131042     -4.2707805639     -3.2706736303
 H      3.8658279231     -3.7001311433     -3.7129797004
 H      3.3200431106     -1.8145765013     -5.9925553298
 H      4.2360256862     -1.3868824022     -4.5285354344
 H      2.8031593739     -0.3255694366     -5.0015014015
 H      3.0429089999     -0.3300730075     -0.5753307034
 H     -0.7650348640      2.7762690460      6.3041534989
 H     -2.3591823338      2.2542366206      6.6155084685
 H     -2.0483708718      3.3461584734      5.3293245852
 H      0.2133466061      0.4294980535      5.8937666298
 H     -0.6873729811     -0.7354875602      4.9237701164
 H     -1.4510479401     -0.2222110639      6.4543864764
 H     -4.3164581868      2.2428458086      4.9409182605
 H     -4.6982962952      1.7091203862      3.3520082135
 H     -3.3853032878      2.9362371887      3.5532019409
 H     -3.8708752971     -0.1971755322      5.7502547722
 H     -2.8743253152     -1.1873959800      4.5997477850
 H     -4.4926413038     -0.4814835129      4.1606726995
 H     -1.9436992168      0.3253325575      0.1770991164
 H     -0.1607538180      2.2101351245     -2.8529332535
 H      1.2737809568      3.8013371366     -1.6725528624
60
# ORCA AIMD Position Step 7, t=3.50 fs, E_Pot=-1207.38788016 Hartree, Unit is Angstrom
 C      0.5767923790     -1.6760045805     -5.8836520986
 C      0.8267222431     -2.0605901547     -4.4082135475
 O      0.4134423601     -1.0660954860     -3.5614113651
 C      0.0419740584     -3.3905531786     -4.1017808507
 C      2.3482775713     -2.2335791192     -4.1112670104
 C      2.8693104886     -3.6672840651     -4.0711701879
 C      3.2862310292     -1.3950382325     -4.9862499961
 O      2.4517001854     -1.7502140031     -2.7472804628
 B      1.2618953651     -0.9885524991     -2.5177359102
 C      1.0496914353     -0.1640651736     -1.2764360120
 C      2.0915056980      0.1642672147     -0.4497657543
 C      2.1588783274      1.2308157523      0.5738257835
 H      3.1554088592      1.2543982436      1.1089921592
 C      0.9293936881      1.8587362678      1.2849946871
 H      1.2234760435      2.2157878967      2.3099646414
 C     -0.3797254231      1.2307904132      1.2643332142
 B     -1.1659102386      1.1815827424      2.6220860942
 O     -0.6802454655      1.7652106793      3.7488359316
 C     -1.5380215639      1.3876671031      4.9096685604
 C     -1.6728614666      2.5182672255      5.8265271056
 C     -0.8656495781      0.1559069020      5.5861490138
 C     -2.8868062795      0.9042126709      4.1365600315
 C     -3.8714535939      2.0687590858      3.9893447346
 C     -3.5347248958     -0.3102627787      4.7406467779
 O     -2.3941256831      0.5687474220      2.7898564390
 C     -0.9310237216      0.7645261525      0.1513848684
 C     -0.2877325728      0.6486264236     -1.2233339782
 H     -0.9887302271      0.1629444508     -1.8723086461
 C      0.0933220387      2.0192138128     -1.7898372214
 C      0.9572702665      2.9055275803     -1.1432941370
 C      1.5368294249      2.6797466003      0.1714595601
 H      2.1791541170      3.5487397036      0.4323837762
 H     -0.4541698530     -1.5318734775     -6.1842406388
 H      0.9678939940     -2.3161300998     -6.5780034137
 H      1.0512547757     -0.7261658322     -6.0273530923
 H     -1.0704368553     -3.1569695546     -4.1279765852
 H      0.1327898144     -3.7379677519     -3.1416074498
 H      0.1790785023     -4.2302029151     -4.8101818887
 H      2.9123855638     -4.2088360345     -5.0260472844
 H      2.4246256757     -4.2659633804     -3.2706563435
 H      3.8585514588     -3.6987968705     -3.6998231504
 H      3.3171227508     -1.8186198547     -5.9876711904
 H      4.2326799312     -1.3879938716     -4.5230675197
 H      2.7938470408     -0.3373909263     -4.9995165624
 H      3.0455370172     -0.3225581666     -0.5739451218
 H     -0.7676176881      2.7809269983      6.3063633188
 H     -2.3527771580      2.2476088507      6.6120577100
 H     -2.0555717919      3.3437236193      5.3271356251
 H      0.2080102858      0.4144735434      5.8862506512
 H     -0.6878019430     -0.7338977379      4.9262883369
 H     -1.4540236056     -0.2309013666      6.4435701406
 H     -4.3144129905      2.2355659127      4.9407765344
 H     -4.6956245941      1.7080527190      3.3601559998
 H     -3.3828669039      2.9320546072      3.5510857623
 H     -3.8734060330     -0.2029565483      5.7496074265
 H     -2.8756001202     -1.1781969771      4.5881526800
 H     -4.4883409762     -0.4678334444      4.1674004699
 H     -1.9393664111      0.3397534982      0.1701313985
 H     -0.1561727677      2.2101634950     -2.8486289080
 H      1.2717578873      3.8046929494     -1.6646393833
60
# ORCA AIMD Position Step 8, t=4.00 fs, E_Pot=-1207.38628503 Hartree, Unit is Angstrom
 C      0.5799638459     -1.6731270052     -5.8789961912
 C      0.8261163948     -2.0537479966     -4.4011392931
 O      0.4173127218     -1.0651901650     -3.5607820443
 C      0.0457275943     -3.3935489400     -4.1013629210
 C      2.3452916097     -2.2300317036     -4.1127521206
 C      2.8651208475     -3.6637652520     -4.0727421832
 C      3.2854965606     -1.3952365755     -4.9879969659
 O      2.4539498975     -1.7511911202     -2.7480158032
 B      1.2597937983     -0.9874773073     -2.5176600774
 C      1.0516108028     -0.1694389271     -1.2767388893
 C      2.0932884295      0.1638956680     -0.4536121904
 C      2.1609866273      1.2289124577      0.5752166230
 H      3.1494250420      1.2495352684      1.1004548646
 C      0.9269955536      1.8594349162      1.2842978254
 H      1.2187233991      2.2073203216      2.3008388173
 C     -0.3775923995      1.2288959823      1.2639432128
 B     -1.1649707713      1.1807470514      2.6225601560
 O     -0.6813370201      1.7683155962      3.7446981067
 C     -1.5381978281      1.3933566267      4.9126568282
 C     -1.6706570973      2.5169443598      5.8260201823
 C     -0.8687689965      0.1525358335      5.5843649989
 C     -2.8886012253      0.9051067037      4.1368244324
 C     -3.8698344508      2.0711569967      3.9875793272
 C     -3.5327679972     -0.3076953270      4.7421594634
 O     -2.3929875503      0.5675477407      2.7893671804
 C     -0.9300637897      0.7723842789      0.1525705960
 C     -0.2876656475      0.6483693964     -1.2230087945
 H     -0.9908278514      0.1618367802     -1.8670196114
 C      0.0910177479      2.0227798527     -1.7892191975
 C      0.9577272876      2.9096281352     -1.1419915251
 C      1.5346805148      2.6815699213      0.1729375837
 H      2.1719773475      3.5451256824      0.4246267429