60
# ORCA AIMD Force Step 0, t=0.00 fs, E_Pot=-1207.44801482 Hartree, Unit is Hartree/Angstrom
 C      0.0000000000      0.0000000000      0.0000000000
 C      0.0000000000      0.0000000000      0.0000000000
 O      0.0000000000      0.0000000000      0.0000000000
 C      0.0000000000      0.0000000000      0.0000000000
 C      0.0000000000      0.0000000000      0.0000000000
 C      0.0000000000      0.0000000000      0.0000000000
 C      0.0000000000      0.0000000000      0.0000000000
 O      0.0000000000      0.0000000000      0.0000000000
 B      0.0000000000      0.0000000000      0.0000000000
 C      0.0000000000      0.0000000000      0.0000000000
 C      0.0000000000      0.0000000000      0.0000000000
 C      0.0000000000      0.0000000000      0.0000000000
 H      0.0000000000      0.0000000000      0.0000000000
 C      0.0000000000      0.0000000000      0.0000000000
 H      0.0000000000      0.0000000000      0.0000000000
 C      0.0000000000      0.0000000000      0.0000000000
 B      0.0000000000      0.0000000000      0.0000000000
 O      0.0000000000      0.0000000000      0.0000000000
 C      0.0000000000      0.0000000000      0.0000000000
 C      0.0000000000      0.0000000000      0.0000000000
 C      0.0000000000      0.0000000000      0.0000000000
 C      0.0000000000      0.0000000000      0.0000000000
 C      0.0000000000      0.0000000000      0.0000000000
 C      0.0000000000      0.0000000000      0.0000000000
 O      0.0000000000      0.0000000000      0.0000000000
 C      0.0000000000      0.0000000000      0.0000000000
 C      0.0000000000      0.0000000000      0.0000000000
 H      0.0000000000      0.0000000000      0.0000000000
 C      0.0000000000      0.0000000000      0.0000000000
 C      0.0000000000      0.0000000000      0.0000000000
 C      0.0000000000      0.0000000000      0.0000000000
 H      0.0000000000      0.0000000000      0.0000000000
 H      0.0000000000      0.0000000000      0.0000000000
 H      0.0000000000      0.0000000000      0.0000000000
 H      0.0000000000      0.0000000000      0.0000000000
 H      0.0000000000      0.0000000000      0.0000000000
 H      0.0000000000      0.0000000000      0.0000000000
 H      0.0000000000      0.0000000000      0.0000000000
 H      0.0000000000      0.0000000000      0.0000000000
 H      0.0000000000      0.0000000000      0.0000000000
 H      0.0000000000      0.0000000000      0.0000000000
 H      0.0000000000      0.0000000000      0.0000000000
 H      0.0000000000      0.0000000000      0.0000000000
 H      0.0000000000      0.0000000000      0.0000000000
 H      0.0000000000      0.0000000000      0.0000000000
 H      0.0000000000      0.0000000000      0.0000000000
 H      0.0000000000      0.0000000000      0.0000000000
 H      0.0000000000      0.0000000000      0.0000000000
 H      0.0000000000      0.0000000000      0.0000000000
 H      0.0000000000      0.0000000000      0.0000000000
 H      0.0000000000      0.0000000000      0.0000000000
 H      0.0000000000      0.0000000000      0.0000000000
 H      0.0000000000      0.0000000000      0.0000000000
 H      0.0000000000      0.0000000000      0.0000000000
 H      0.0000000000      0.0000000000      0.0000000000
 H      0.0000000000      0.0000000000      0.0000000000
 H      0.0000000000      0.0000000000      0.0000000000
 H      0.0000000000      0.0000000000      0.0000000000
 H      0.0000000000      0.0000000000      0.0000000000
 H      0.0000000000      0.0000000000      0.0000000000
60
# ORCA AIMD Force Step 1, t=0.50 fs, E_Pot=-1207.44449788 Hartree, Unit is Hartree/Angstrom
 C     -0.0098978851      0.0212887931      0.0147178904
 C     -0.0001690561     -0.0132823570     -0.0081917629
 O      0.0087974956     -0.0090015105      0.0033018021
 C     -0.0253657840      0.0057626781     -0.0274140871
 C      0.0013180034     -0.0021862263      0.0068695123
 C     -0.0066575108     -0.0119723217      0.0013889451
 C     -0.0204924213      0.0225634981     -0.0048038466
 O     -0.0241448067      0.0063655905     -0.0144274559
 B      0.0182892519     -0.0126216981     -0.0058363367
 C      0.0141222876      0.0185525806      0.0236618598
 C     -0.0153581843     -0.0022944630     -0.0155305950
 C      0.0119981994      0.0084154702      0.0063505931
 H     -0.0348354570      0.0010808084     -0.0195781859
 C      0.0247405809      0.0086173248      0.0149244852
 H     -0.0087066544     -0.0121846765     -0.0319545325
 C     -0.0117802633     -0.0089325922     -0.0234862490
 B     -0.0074975492     -0.0020134137      0.0051170692
 O     -0.0182994085     -0.0112449329      0.0066911956
 C      0.0026026021     -0.0146875000     -0.0181108020
 C     -0.0022726038     -0.0062053192      0.0096606171
 C      0.0183000831     -0.0093705735      0.0035344671
 C      0.0110927439      0.0074061072     -0.0028025993
 C     -0.0032628508     -0.0048672261     -0.0120346589
 C     -0.0107559206     -0.0131135333     -0.0140742735
 O      0.0098670517      0.0120622570      0.0195410298
 C     -0.0010967196     -0.0008485804      0.0176777217
 C      0.0075924806      0.0032392853     -0.0005039236
 H      0.0092761251      0.0080834060      0.0085442391
 C      0.0213569031      0.0273235246      0.0040333449
 C     -0.0234743607     -0.0238333282     -0.0236551207
 C      0.0151156723      0.0062373054      0.0091692574
 H     -0.0177919268     -0.0270136464     -0.0047414114
 H      0.0145158180     -0.0029181880      0.0075244159
 H      0.0052747381     -0.0092148341     -0.0041704120
 H     -0.0050135223     -0.0118464562      0.0023459419
 H      0.0318150621     -0.0052064731     -0.0005300085
 H      0.0062345952     -0.0033084932      0.0113324135
 H     -0.0021103010      0.0209131331      0.0139283454
 H     -0.0014910357      0.0106727581      0.0176155580
 H      0.0043478501      0.0107242727     -0.0179668971
 H     -0.0028361557      0.0043920304     -0.0041190768
 H     -0.0008951404      0.0084064033      0.0186502667
 H     -0.0064296615      0.0004946070     -0.0026228091
 H      0.0169905591     -0.0367843251      0.0008147432
 H     -0.0169670450      0.0080819625      0.0011615184
 H     -0.0063434875     -0.0036346330     -0.0053897094
 H      0.0082338904      0.0020971311     -0.0103162263
 H     -0.0008684481      0.0005282056     -0.0006134958
 H     -0.0332434895     -0.0075160280     -0.0079993905
 H     -0.0062999086      0.0245888782      0.0142003932
 H      0.0138811630      0.0098259698     -0.0198610687
 H      0.0052082773      0.0005271977     -0.0075421605
 H      0.0175790169      0.0070627061      0.0118912253
 H     -0.0088825098     -0.0152386877      0.0074681086
 H      0.0061751203     -0.0003722396     -0.0107807964
 H     -0.0151258844      0.0191543502      0.0029861067
 H      0.0251353473      0.0048839975      0.0139511856
 H      0.0224303602      0.0106344047     -0.0006149229
 H      0.0045048301     -0.0018839828      0.0281567727
 H     -0.0082453148     -0.0177633655      0.0124332286
60
# ORCA AIMD Force Step 2, t=1.00 fs, E_Pot=-1207.43593982 Hartree, Unit is Hartree/Angstrom
 C     -0.0196237312      0.0407806055      0.0370919625
 C     -0.0017813755     -0.0290299141     -0.0215457063
 O      0.0002231061     -0.0030311078      0.0044668992
 C     -0.0440754717      0.0180779540     -0.0591271722
 C      0.0063418075     -0.0058508265      0.0100818172
 C     -0.0160850482     -0.0166379044      0.0009609200
 C     -0.0445735206      0.0368099904     -0.0074378834
 O     -0.0319252101      0.0118152528     -0.0134363733
 B      0.0333171507     -0.0203597879     -0.0051020897
 C      0.0091344116      0.0275143919      0.0284148937
 C     -0.0174478042      0.0011249929     -0.0112916767
 C      0.0186351671      0.0091185759      0.0083688645
 H     -0.0468929506      0.0019407537     -0.0246637406
 C      0.0386364044      0.0124562150      0.0260256364
 H     -0.0117832582     -0.0150135566     -0.0425004223
 C     -0.0152236321     -0.0059974691     -0.0164965503
 B     -0.0096583989     -0.0032640728      0.0022183734
 O     -0.0181810141     -0.0097899398      0.0145905474
 C      0.0055509085     -0.0293986068     -0.0303799164
 C     -0.0039781437     -0.0189710591      0.0156586117
 C      0.0306192676     -0.0131573659      0.0047107895
 C      0.0173011849      0.0140248230     -0.0032724173
 C     -0.0018666239     -0.0147959535     -0.0209566316
 C     -0.0172885474     -0.0191462833     -0.0288606522
 O      0.0090813759      0.0122258267      0.0230362322
 C     -0.0069305044     -0.0090312556      0.0076011786
 C      0.0150858075      0.0077636674      0.0046125124
 H      0.0054623487      0.0060317350      0.0043962948
 C      0.0285371893      0.0323380337      0.0025373786
 C     -0.0335282218     -0.0331848469     -0.0305445625
 C      0.0219732798      0.0124272317      0.0118331284
 H     -0.0219865253     -0.0342181999     -0.0034244053
 H      0.0090665050     -0.0032756817      0.0105196834
 H      0.0189901698     -0.0325859151     -0.0243026195
 H     -0.0027106359     -0.0053393414     -0.0000767229
 H      0.0415559606     -0.0059606713     -0.0024106538
 H      0.0142064313     -0.0132489547      0.0433429125
 H     -0.0006216713      0.0256704387      0.0162307914
 H     -0.0047486781      0.0115260555      0.0182562692
 H     -0.0004389898      0.0106705705     -0.0205559349
 H      0.0138214082      0.0081063496     -0.0017170600
 H      0.0001168139      0.0097484750      0.0171775550
 H      0.0065863610      0.0021867947      0.0019149994
 H      0.0269314602     -0.0509358766     -0.0005338214
 H     -0.0147593158      0.0052174031     -0.0008608420
 H      0.0050712883     -0.0015145856     -0.0013919366
 H      0.0034657019      0.0011244482     -0.0056245777
 H     -0.0078296837      0.0188757159     -0.0105237584
 H     -0.0456081890     -0.0091134373     -0.0087884393
 H     -0.0098134454      0.0318925859      0.0164046423
 H      0.0174296323      0.0130457172     -0.0223492048
 H      0.0013784170      0.0061209602      0.0024736542
 H      0.0193434320      0.0091226846      0.0109669062
 H     -0.0098688569     -0.0132908322      0.0076498046
 H      0.0067089328      0.0013393744     -0.0021698700
 H     -0.0184506298      0.0208588542      0.0048794696
 H      0.0320789832      0.0039258743      0.0169219094
 H      0.0243231515      0.0117021135      0.0015171465
 H      0.0049585945     -0.0024760683      0.0332964727
 H     -0.0080630428     -0.0182257669      0.0120657939
60
# ORCA AIMD Force Step 3, t=1.50 fs, E_Pot=-1207.42394636 Hartree, Unit is Hartree/Angstrom
 C     -0.0293725941      0.0590782805      0.0597081346
 C     -0.0028999319     -0.0451372640     -0.0350373883
 O     -0.0086543826      0.0035346118      0.0058819958
 C     -0.0593390408      0.0311743113     -0.0886215383
 C      0.0114167403     -0.0095363664      0.0131924177
 C     -0.0245281808     -0.0197949793      0.0001562056
 C     -0.0671849973      0.0472135265     -0.0089918044
 O     -0.0390261881      0.0168430729     -0.0125095915
 B      0.0476349654     -0.0275333528     -0.0039968555
 C      0.0040718119      0.0361597176      0.0328858599
 C     -0.0202000908      0.0051100474     -0.0066831144
 C      0.0219235971      0.0095074670      0.0082934306
 H     -0.0553666627      0.0029710691     -0.0276731523
 C      0.0511790324      0.0148664642      0.0338751474
 H     -0.0138774472     -0.0164628667     -0.0496694434
 C     -0.0183082060     -0.0029393641     -0.0090685881
 B     -0.0116803333     -0.0044920586     -0.0008509733
 O     -0.0178408087     -0.0082222848      0.0222752099
 C      0.0084474457     -0.0441957087     -0.0424697944
 C     -0.0052961919     -0.0311236909      0.0208869290
 C      0.0404467721     -0.0154090513      0.0048310723
 C      0.0233426511      0.0204997524     -0.0036560353
 C      0.0002154742     -0.0248933081     -0.0285443563
 C     -0.0223688680     -0.0231585763     -0.0424798041
 O      0.0082172145      0.0123000744      0.0263293461
 C     -0.0112672060     -0.0164936162     -0.0029962975
 C      0.0229652480      0.0128013745      0.0102478380
 H      0.0011271520      0.0035766907     -0.0002185831
 C      0.0355027321      0.0360470732      0.0026874231
 C     -0.0430832344     -0.0429196184     -0.0357894815
 C      0.0269632040      0.0163366399      0.0133706137
 H     -0.0244378294     -0.0390605900     -0.0012823199
 H      0.0030886272     -0.0034656294      0.0131082305
 H      0.0327653725     -0.0554407892     -0.0444625665
 H     -0.0000749855      0.0017358837     -0.0025102345
 H      0.0480125575     -0.0059925068     -0.0045441524
 H      0.0214546251     -0.0233675118      0.0744830595
 H      0.0012416746      0.0288231997      0.0173741575
 H     -0.0078827216      0.0118540483      0.0177889333
 H     -0.0058102482      0.0097857077     -0.0219951390
 H      0.0299756383      0.0116484858      0.0009825825
 H      0.0011977666      0.0104548214      0.0144732964
 H      0.0196560879      0.0037405230      0.0067031198
 H      0.0353114535     -0.0605167034     -0.0019771887
 H     -0.0115703307      0.0018896705     -0.0029749470
 H      0.0166823137      0.0008725055      0.0028381777
 H     -0.0017741131     -0.0000802671     -0.0003337325
 H     -0.0149660695      0.0368751073     -0.0202472519
 H     -0.0546583010     -0.0095537144     -0.0086125540
 H     -0.0129139995      0.0370066184      0.0170442609
 H      0.0197802795      0.0155984560     -0.0232008492
 H     -0.0025414248      0.0114766765      0.0126650107
 H      0.0198225346      0.0106121545      0.0090319514
 H     -0.0101960300     -0.0102954248      0.0073288118
 H      0.0069375165      0.0030082595      0.0068099924
 H     -0.0205739234      0.0210934265      0.0066876919
 H      0.0367006230      0.0024436861      0.0184689728
 H      0.0244590935      0.0119667736      0.0037228794
 H      0.0047789215     -0.0026190138      0.0361836638
 H     -0.0074356709     -0.0173574513      0.0108686017
60
# ORCA AIMD Force Step 4, t=2.00 fs, E_Pot=-1207.41095605 Hartree, Unit is Hartree/Angstrom
 C     -0.0372261738      0.0730540094      0.0786951513
 C     -0.0035006082     -0.0614033519     -0.0484576832
 O     -0.0177452968      0.0106095190      0.0075516362
 C     -0.0704626312      0.0433687719     -0.1104343180
 C      0.0165020289     -0.0132843223      0.0161807908
 C     -0.0305105941     -0.0214322598     -0.0004912760
 C     -0.0867165661      0.0541503103     -0.0090231114
 O     -0.0454297096      0.0214397125     -0.0116545945
 B      0.0611137528     -0.0340809285     -0.0025096898
 C     -0.0009896908      0.0443950160      0.0370148761
 C     -0.0233937654      0.0094749121     -0.0018135092
 C      0.0219135796      0.0096263902      0.0062195588
 H     -0.0602495610      0.0041336484     -0.0286740078
 C      0.0621919902      0.0158620437      0.0384383089
 H     -0.0149376088     -0.0165744488     -0.0533985228
 C     -0.0209816156      0.0001889646     -0.0013956473
 B     -0.0135328311     -0.0056650281     -0.0040339547
 O     -0.0172908903     -0.0065836970      0.0296737308
 C      0.0112568034     -0.0588853434     -0.0542661660
 C     -0.0064752850     -0.0403910534      0.0247890135
 C      0.0477081858     -0.0158687253      0.0039337945
 C      0.0291910115      0.0267510447     -0.0039131710
 C      0.0025714269     -0.0346992039     -0.0338885832
 C     -0.0261599712     -0.0250188871     -0.0540932142
 O      0.0072738104      0.0122784594      0.0293941960
 C     -0.0140145168     -0.0231325563     -0.0138511665
 C      0.0308607150      0.0181156742      0.0160191745
 H     -0.0033769427      0.0009540438     -0.0049607896
 C      0.0421852521      0.0384151958      0.0045519818
 C     -0.0520307773     -0.0529265157     -0.0393681982
 C      0.0299878632      0.0178557254      0.0138046628
 H     -0.0250794859     -0.0414296830      0.0016091415
 H     -0.0030493038     -0.0035382708      0.0152654714
 H      0.0444914366     -0.0741353756     -0.0609971246
 H      0.0027014186      0.0088843621     -0.0048550442
 H      0.0511805152     -0.0053309066     -0.0067850144
 H      0.0272798554     -0.0318721700      0.0992957910
 H      0.0034439023      0.0302305047      0.0172250758
 H     -0.0107867921      0.0116366967      0.0162214841
 H     -0.0115750843      0.0081194392     -0.0222978932
 H      0.0438965222      0.0149673514      0.0034656684
 H      0.0023293129      0.0105289057      0.0106773636
 H      0.0313344903      0.0050970985      0.0111004625
 H      0.0420010496     -0.0658139633     -0.0034755493
 H     -0.0076622472     -0.0017196221     -0.0051088795
 H      0.0274713784      0.0032983760      0.0068178701
 H     -0.0071474427     -0.0014013450      0.0052019389
 H     -0.0213111286      0.0522756916     -0.0284292050
 H     -0.0603167236     -0.0089356773     -0.0075227764
 H     -0.0155388481      0.0398075763      0.0160717781
 H      0.0208622007      0.0174057134     -0.0223747070
 H     -0.0060848845      0.0163261950      0.0220112771
 H      0.0189828493      0.0114879499      0.0061398487
 H     -0.0098953426     -0.0063868624      0.0065357318
 H      0.0070625276      0.0045247167      0.0154149411
 H     -0.0214139331      0.0197906618      0.0083210377
 H      0.0388949275      0.0005115516      0.0185854181
 H      0.0227963732      0.0114233249      0.0059246656
 H      0.0039927858     -0.0023084551      0.0367281120
 H     -0.0064040893     -0.0152309692      0.0088968727
60
# ORCA AIMD Force Step 5, t=2.50 fs, E_Pot=-1207.39962630 Hartree, Unit is Hartree/Angstrom
 C     -0.0410070848      0.0795709666      0.0898382331
 C     -0.0035280198     -0.0777386873     -0.0617205886
 O     -0.0270072323      0.0181332136      0.0095324335
 C     -0.0770537870      0.0527764970     -0.1190449651
 C      0.0215400521     -0.0171487729      0.0189949920
 C     -0.0325555537     -0.0216823149     -0.0002814544
 C     -0.1015714724      0.0580042090     -0.0070203807
 O     -0.0511811815      0.0256605426     -0.0108401638
 B      0.0736997323     -0.0399894879     -0.0006567967
 C     -0.0060708877      0.0521952572      0.0406820908
 C     -0.0267561630      0.0140129530      0.0032839109
 C      0.0185863758      0.0096987954      0.0022868661
 H     -0.0615979811      0.0053909678     -0.0277580792
 C      0.0716719943      0.0154504256      0.0396507221
 H     -0.0149464316     -0.0154075467     -0.0536858438
 C     -0.0231911762      0.0034408874      0.0063913106
 B     -0.0152182358     -0.0067380356     -0.0072521670
 O     -0.0165691720     -0.0049407961      0.0367811118
 C      0.0139683186     -0.0733725189     -0.0657983366
 C     -0.0079084649     -0.0443633928      0.0269134454
 C      0.0524159677     -0.0143933730      0.0020995318
 C      0.0349016273      0.0326962673     -0.0040229305
 C      0.0047369550     -0.0438200706     -0.0360834869
 C     -0.0289226500     -0.0246880271     -0.0628905489
 O      0.0062375028      0.0121848435      0.0322286509
 C     -0.0151336462     -0.0289685147     -0.0247607779
 C      0.0383646217      0.0234382009      0.0214642877
 H     -0.0076219876     -0.0015433364     -0.0094348230
 C      0.0485686735      0.0394457703      0.0081573617
 C     -0.0602902105     -0.0630831860     -0.0413136991
 C      0.0310592466      0.0168528572      0.0132179349
 H     -0.0239222539     -0.0413153468      0.0051558344
 H     -0.0089300514     -0.0035715102      0.0170240675
 H      0.0518222122     -0.0848857543     -0.0698916539
 H      0.0053529084      0.0155026846     -0.0070403805
 H      0.0511649774     -0.0040350886     -0.0089936430
 H      0.0311922433     -0.0367225737      0.1122216617
 H      0.0059487760      0.0298066217      0.0157204698
 H     -0.0133902582      0.0108912566      0.0136049615
 H     -0.0175080641      0.0057788407     -0.0215527428
 H      0.0538676974      0.0180360749      0.0050957411
 H      0.0034940396      0.0100045498      0.0059782512
 H      0.0401191892      0.0062014664      0.0143697518
 H      0.0469458196     -0.0671382338     -0.0049977880
 H     -0.0033270547     -0.0054378751     -0.0071986303
 H      0.0363352324      0.0054682860      0.0099894035
 H     -0.0122583118     -0.0026730773      0.0105557528
 H     -0.0257399651      0.0627413942     -0.0336372548
 H     -0.0626163036     -0.0073618141     -0.0055903251
 H     -0.0176606534      0.0402836491      0.0135075867
 H      0.0206625407      0.0184319300     -0.0199078936
 H     -0.0087741901      0.0204549598      0.0294493475
 H      0.0168441511      0.0117370738      0.0023791682
 H     -0.0090202924     -0.0017244179      0.0053186954
 H      0.0073308503      0.0058085123      0.0228575407
 H     -0.0209389123      0.0169528105      0.0097139611
 H      0.0386394857     -0.0017978098      0.0173097540
 H      0.0193308330      0.0100698201      0.0080585953
 H      0.0026364282     -0.0015571324      0.0349255070
 H     -0.0050313999     -0.0120004036      0.0062466254
60
# ORCA AIMD Force Step 6, t=3.00 fs, E_Pot=-1207.39184579 Hartree, Unit is Hartree/Angstrom
 C     -0.0391884417      0.0768079348      0.0901225319
 C     -0.0030492438     -0.0937694816     -0.0745381594
 O     -0.0362795000      0.0259164446      0.0117658188
 C     -0.0789898653      0.0579101621     -0.1112108966
 C      0.0264770849     -0.0211340709      0.0216262790
 C     -0.0296568689     -0.0207415914      0.0013660943
 C     -0.1102513003      0.0588781882     -0.0026289685
 O     -0.0562497134      0.0294717759     -0.0100821265
 B      0.0852480163     -0.0451990243      0.0015475285
 C     -0.0110346018      0.0594488643      0.0438860205
 C     -0.0298755039      0.0184536833      0.0084336097
 C      0.0120111526      0.0096190912     -0.0034782435
 H     -0.0593284545      0.0067156428     -0.0249425936
 C      0.0793696914      0.0136498250      0.0375501469
 H     -0.0138547439     -0.0129966482     -0.0504631680
 C     -0.0249493927      0.0066765632      0.0140199947
 B     -0.0166964345     -0.0076914564     -0.0104593878
 O     -0.0156772207     -0.0033211885      0.0434928689
 C      0.0165171844     -0.0873586986     -0.0768382562
 C     -0.0098865412     -0.0412678254      0.0270548108
 C      0.0544651521     -0.0108684745     -0.0005931025
 C      0.0403980408      0.0382669027     -0.0039665353
 C      0.0063156117     -0.0517887946     -0.0344296925
 C     -0.0308439499     -0.0222099022     -0.0680346950
 O      0.0051252288      0.0120024540      0.0348004749
 C     -0.0146894528     -0.0339102337     -0.0353762750
 C      0.0449663205      0.0283991269      0.0261470019
 H     -0.0111556392     -0.0036073838     -0.0132288387
 C      0.0545540358      0.0391690501      0.0134263807
 C     -0.0677003379     -0.0730654919     -0.0417669244
 C      0.0301167301      0.0133752147      0.0116265579
 H     -0.0209383590     -0.0386602720      0.0092693770
 H     -0.0141354660     -0.0036364530      0.0184270124
 H      0.0530624522     -0.0852913213     -0.0683972510
 H      0.0076219690      0.0210251000     -0.0089862818
 H      0.0480118075     -0.0021410784     -0.0110317099
 H      0.0330666663     -0.0364714373      0.1099198985
 H      0.0086857771      0.0275466678      0.0128336645
 H     -0.0156081274      0.0096795316      0.0100748134
 H     -0.0233518272      0.0029103790     -0.0199011026
 H      0.0585774623      0.0208303520      0.0053146972
 H      0.0046646236      0.0089687204      0.0006781842
 H      0.0446787390      0.0070280437      0.0158163881
 H      0.0500331745     -0.0646414449     -0.0065258216
 H      0.0009719455     -0.0089872868     -0.0091534524
 H      0.0422371831      0.0070741328      0.0118214372
 H     -0.0166797305     -0.0037277037      0.0152667676
 H     -0.0272929502      0.0664804676     -0.0347625244
 H     -0.0614902869     -0.0049199948     -0.0028511869
 H     -0.0192304475      0.0383814155      0.0093433903
 H      0.0191754617      0.0186371710     -0.0158575215
 H     -0.0101673366      0.0236886567      0.0339839073
 H      0.0135035345      0.0113782633     -0.0020905873
 H     -0.0077019258      0.0033921056      0.0037867535
 H      0.0079896358      0.0067790611      0.0283557948
 H     -0.0191731469      0.0126339356      0.0107791021
 H      0.0359079876     -0.0043939520      0.0146871532
 H      0.0142181249      0.0080013875      0.0100375187
 H      0.0007680845     -0.0003871923      0.0308179709
 H     -0.0034178749     -0.0079134189      0.0030873706
60
# ORCA AIMD Force Step 7, t=3.50 fs, E_Pot=-1207.38788016 Hartree, Unit is Hartree/Angstrom
 C     -0.0316519486      0.0655174143      0.0792486018
 C     -0.0021217353     -0.1091674337     -0.0866600529
 O     -0.0453931178      0.0337530958      0.0141908006
 C     -0.0765322293      0.0585544636     -0.0877623515
 C      0.0312247480     -0.0252212063      0.0240462783
 C     -0.0215756187     -0.0188914045      0.0048458374
 C     -0.1118161202      0.0566471057      0.0041969357
 O     -0.0606372751      0.0328758212     -0.0093717147
 B      0.0956417711     -0.0496783647      0.0040545848
 C     -0.0158364881      0.0660620422      0.0465532339
 C     -0.0323123837      0.0225385019      0.0135278516
 C      0.0021319543      0.0094429282     -0.0110189164
 H     -0.0533368096      0.0080754330     -0.0202359943
 C      0.0851584450      0.0104629277      0.0320717072
 H     -0.0116292822     -0.0093798850     -0.0436602857
 C     -0.0262514519      0.0098201325      0.0212683143
 B     -0.0179449163     -0.0084921815     -0.0135635416
 O     -0.0146487800     -0.0017712680      0.0497270789
 C      0.0188651559     -0.1005906781     -0.0872356299
 C     -0.0125197734     -0.0305882905      0.0256196918
 C      0.0537163344     -0.0053270903     -0.0040232547
 C      0.0456484144      0.0433581922     -0.0037351186
 C      0.0070464356     -0.0582424776     -0.0286615074
 C     -0.0320531284     -0.0177592119     -0.0689345925
 O      0.0039449695      0.0117365098      0.0370906509
 C     -0.0128406889     -0.0379580548     -0.0453976867
 C      0.0501978992      0.0326605799      0.0296319976
 H     -0.0135354743     -0.0049371026     -0.0159559247
 C      0.0600456346      0.0376413966      0.0201870543
 C     -0.0740977703     -0.0824920815     -0.0409281477
 C      0.0271908006      0.0074445624      0.0091286182
 H     -0.0161698391     -0.0334951113      0.0138367328
 H     -0.0182378068     -0.0038144693      0.0195619754
 H      0.0479491624     -0.0755009596     -0.0564145123
 H      0.0092125076      0.0248647835     -0.0106368426
 H      0.0417825775      0.0002990704     -0.0127495525
 H      0.0331829393     -0.0309430683      0.0929920208
 H      0.0115767988      0.0235221560      0.0086373399
 H     -0.0173795701      0.0080977224      0.0058177813
 H     -0.0288292303     -0.0002894101     -0.0175486559
 H      0.0574915687      0.0232997942      0.0037702976
 H      0.0058198592      0.0075480364     -0.0048464940
 H      0.0442799145      0.0075650534      0.0149849478
 H      0.0511068330     -0.0583029630     -0.0080366763
 H      0.0047818911     -0.0121193451     -0.0108986407
 H      0.0444224787      0.0078398789      0.0119091063
 H     -0.0199851270     -0.0043754064      0.0188676746
 H     -0.0254816916      0.0629093654     -0.0314225007
 H     -0.0568780037     -0.0016891010      0.0006563764
 H     -0.0202299065      0.0341582445      0.0036415508
 H      0.0164610210      0.0180324078     -0.0103869195
 H     -0.0100038390      0.0259560165      0.0349786316
 H      0.0091301415      0.0104689280     -0.0070582186
 H     -0.0061029170      0.0086287319      0.0020781688
 H      0.0092417275      0.0074045752      0.0313020517
 H     -0.0162114811      0.0069925652      0.0114613892
 H      0.0307283323     -0.0071833583      0.0107973121
 H      0.0076918870      0.0053382127      0.0117868108
 H     -0.0015348744      0.0011540601      0.0245713077
 H     -0.0016896998     -0.0033098768     -0.0003642084
60
# ORCA AIMD Force Step 8, t=4.00 fs, E_Pot=-1207.38628503 Hartree, Unit is Hartree/Angstrom
 C     -0.0197394056      0.0488379606      0.0597327767
 C     -0.0007616108     -0.1238374565     -0.0980700138
 O     -0.0542696358      0.0415132671      0.0168227635
 C     -0.0701571300      0.0557862005     -0.0532210504
 C      0.0357143521     -0.0294316922      0.0261776495
 C     -0.0089011958     -0.0164427931      0.0102868230
 C     -0.1060995417      0.0508837597      0.0131053552
 O     -0.0643828651      0.0359264161     -0.0086517350
 B      0.1048397252     -0.0534045600      0.0068227173
 C     -0.0204823158      0.0720655990      0.0485984601
 C     -0.0336783824      0.0259987001      0.0185178543
 C     -0.0112101566      0.0093560967     -0.0202983861
 H     -0.0435184357      0.0094366215     -0.0136403282
 C      0.0890165726      0.0058565684      0.0231260892
 H     -0.0082604295     -0.0045994442     -0.0332303590
 C     -0.0271250398      0.0129384667      0.0279872067
 B     -0.0189758263     -0.0090942622     -0.0165071428
 O     -0.0135327362     -0.0003779042      0.0555114348
 C      0.0209682825     -0.1128382312     -0.0969467077
 C     -0.0157067676     -0.0133328480      0.0235763714
 C      0.0499357325      0.0021296897     -0.0080752900
 C      0.0507007151      0.0478915539     -0.0033658560
 C      0.0068564152     -0.0629341429     -0.0190607708
 C     -0.0325810969     -0.0116512638     -0.0653775307
 O      0.0026935457      0.0114266995      0.0391023118
 C     -0.0098222011     -0.0412838593     -0.0545947658
 C      0.0536970275      0.0359444642      0.0315611430
 H     -0.0143999323     -0.0052804637     -0.0173224375
 C      0.0649985697      0.0349405065      0.0281931864
 C     -0.0793079257     -0.0908974527     -0.0390330935
 C      0.0224387197     -0.0008701837      0.0058120524