60
# ORCA AIMD Position Step 0, t=0.00 fs, E_Pot=-1207.45050325 Hartree, Unit is Angstrom
 C      0.4898480022     -1.7972030080     -5.8475340262
 C      0.7994360036     -2.1548110097     -4.3950580197
 O      0.3778490017     -1.0565300047     -3.5444250159
 C     -0.0208120001     -3.3754590151     -3.9638700178
 C      2.3452790105     -2.2840670102     -4.0522220181
 C      2.8710380129     -3.7153160166     -3.9814900178
 C      3.2323580145     -1.4334920064     -4.9702380223
 O      2.4247670109     -1.7184350077     -2.7166750122
 B      1.2976810058     -0.9472080042     -2.5169430113
 C      1.0744630048      0.0007210000     -1.3116480059
 C      2.1145580095      0.2782240012     -0.4666930021
 C      2.1900980098      1.3463520060      0.5321150024
 H      3.1400890141      1.3919100062      1.0864650049
 C      0.9922600044      1.9179920086      1.2922220058
 H      1.2630110057      2.2766310102      2.2961250103
 C     -0.3578850016      1.3004400058      1.2379780055
 B     -1.1465980051      1.1970830054      2.5787920115
 O     -0.6618330030      1.7216300077      3.7634950169
 C     -1.5280390068      1.2698200057      4.8395360217
 C     -1.6884240076      2.4095580108      5.8434320262
 C     -0.8347590037      0.0761550003      5.5075390247
 C     -2.8566120128      0.8688330039      4.0673610182
 C     -3.8532740173      2.0277820091      3.9469550177
 C     -3.5594700159     -0.3729340017      4.6123210207
 O     -2.3721040106      0.5775800026      2.7275770122
 C     -0.8972180040      0.7984930036      0.0926110004
 C     -0.2349320011      0.7910850035     -1.2687830057
 H     -0.9335760042      0.3247630015     -1.9873320089
 C      0.1318730006      2.1706030097     -1.7809610080
 C      0.9615850043      3.0171900135     -1.1208710050
 C      1.5953780071      2.7647240124      0.1822900008
 H      2.2291280100      3.5900370161      0.5409540024
 H     -0.6064150027     -1.7200010077     -5.9868710268
 H      0.8701040039     -2.5760770115     -6.5385970293
 H      0.9348980042     -0.8262990037     -6.1309250275
 H     -1.0968180049     -3.1299550140     -4.0543730182
 H      0.1772080008     -3.6363430163     -2.9062180130
 H      0.1903310009     -4.2620690191     -4.5922460206
 H      2.7489370123     -4.2408660190     -4.9492960222
 H      2.3512620105     -4.2908750192     -3.1939780143
 H      3.9495080177     -3.6991780166     -3.7292180167
 H      3.2836110147     -1.8574600083     -5.9928380268
 H      4.2585370191     -1.4014580063     -4.5553960204
 H      2.8608650128     -0.3927290018     -5.0406940226
 H      3.0464860136     -0.2946800013     -0.6155010028
 H     -0.7142330032      2.6207900117      6.3266930283
 H     -2.4128360108      2.1411520096      6.6381230297
 H     -2.0309020091      3.3387370150      5.3529550240
 H      0.1700530008      0.3897720017      5.8516480262
 H     -0.7053040032     -0.7648090034      4.7991370215
 H     -1.4052650063     -0.2863780013      6.3849040286
 H     -4.3225410194      2.2675900102      4.9213660220
 H     -4.6532760208      1.7419440078      3.2368730145
 H     -3.3634990151      2.9417200132      3.5586900159
 H     -3.8655670173     -0.2245560010      5.6676130254
 H     -2.9101800130     -1.2653440057      4.5538430204
 H     -4.4712740200     -0.5783920026      4.0177210180
 H     -1.9000320085      0.3429040015      0.1614200007
 H     -0.2210550010      2.4442000109     -2.7882450125
 H      1.2522300056      3.9565100177     -1.6196160073
60
# ORCA AIMD Position Step 1, t=0.50 fs, E_Pot=-1207.44697584 Hartree, Unit is Angstrom
 C      0.4939683956     -1.7967033545     -5.8455233037
 C      0.7989530286     -2.1460349812     -4.3865602696
 O      0.3820188451     -1.0559877675     -3.5440554479
 C     -0.0149419133     -3.3797271086     -3.9602400842
 C      2.3418370214     -2.2802013539     -4.0542230775
 C      2.8679319750     -3.7112762045     -3.9830223513
 C      3.2345604334     -1.4354706154     -4.9717001833
 O      2.4281395412     -1.7199403912     -2.7170393344
 B      1.2932276321     -0.9448264711     -2.5167942424
 C      1.0763123099     -0.0059997153     -1.3132908181
 C      2.1171331281      0.2775090453     -0.4702797263
 C      2.1915178643      1.3441961647      0.5333381643
 H      3.1581789304      1.3853757641      1.0894872069
 C      0.9877788173      1.9181633590      1.2903679483
 H      1.2642476130      2.2748905039      2.3082883920
 C     -0.3551095346      1.2986355478      1.2376641367
 B     -1.1451589088      1.1965183630      2.5794094761
 O     -0.6623892031      1.7247600373      3.7587585611
 C     -1.5286178577      1.2773922526      4.8443712620
 C     -1.6860763754      2.4094438976      5.8421450250
 C     -0.8393097157      0.0734138645      5.5057680714
 C     -2.8593918127      0.8687041297      4.0677478497
 C     -3.8518215657      2.0312976090      3.9463243658
 C     -3.5567136943     -0.3697205904      4.6155685500
 O     -2.3712265761      0.5761005474      2.7262991128
 C     -0.8959015336      0.8067437046      0.0942445794
 C     -0.2359888569      0.7901678379     -1.2690470914
 H     -0.9343489458      0.3231340343     -1.9803993530
 C      0.1281335380      2.1726399668     -1.7806701360
 C      0.9639119322      3.0230622938     -1.1182774935
 C      1.5923623928      2.7659656849      0.1832494664
 H      2.2319590918      3.6029436461      0.5323379021
 H     -0.5948945734     -1.7091006181     -6.0060674274
 H      0.8675382527     -2.5521890942     -6.5251171809
 H      0.9426633624     -0.8299498235     -6.1166589148
 H     -1.1053988770     -3.1341206820     -4.0395168601
 H      0.1677823921     -3.6415636909     -2.9275349781
 H      0.1814227915     -4.2691341386     -4.5989251607
 H      2.7674891300     -4.2453734909     -4.9500189269
 H      2.3615532935     -4.2893450799     -3.1859669698
 H      3.9299067404     -3.7028890563     -3.7171388473
 H      3.2801104322     -1.8650855182     -5.9925231168
 H      4.2466477496     -1.4041093867     -4.5531557150
 H      2.8379200195     -0.3818748299     -5.0377228768
 H      3.0524697552     -0.2874208208     -0.6126314975
 H     -0.7244596119      2.6245390053      6.3272538719
 H     -2.4050331066      2.1350725704      6.6338951650
 H     -2.0315555688      3.3211917206      5.3590520067
 H      0.1853435217      0.3783858746      5.8470941342
 H     -0.7004935807     -0.7769017717      4.7959778685
 H     -1.4153120205     -0.3006993235      6.3824651866
 H     -4.3192474082      2.2555690951      4.9153034972
 H     -4.6575408861      1.7369726320      3.2422172014
 H     -3.3575794168      2.9405301282      3.5541992576
 H     -3.8707125798     -0.2314591574      5.6631560727
 H     -2.9039666998     -1.2636224308      4.5399188548
 H     -4.4804699135     -0.5656445979      4.0177573976
 H     -1.9040892215      0.3526554129      0.1528952462
 H     -0.2180504761      2.4449528487     -2.7969823782
 H      1.2527765033      3.9654455228     -1.6154730677
60
# ORCA AIMD Position Step 2, t=1.00 fs, E_Pot=-1207.43832405 Hartree, Unit is Angstrom
 C      0.4980386975     -1.7960853109     -5.8434320851
 C      0.7984695921     -2.1373236973     -4.3781036370
 O      0.3862276215     -1.0554815923     -3.5436742012
 C     -0.0092123787     -3.3839718756     -3.9567602663
 C      2.3383992536     -2.2763436345     -4.0561887603
 C      2.8647844438     -3.7072994257     -3.9845436756
 C      3.2366497659     -1.4373294158     -4.9731938692
 O      2.4314171898     -1.7214175842     -2.7174617635
 B      1.2888804180     -0.9425204863     -2.5166798887
 C      1.0782376262     -0.0126212557     -1.3148059244
 C      2.1196267301      0.2767767935     -0.4739474744
 C      2.1930017491      1.3420840320      0.5346006600
 H      3.1740055106      1.3788529984      1.0912928343
 C      0.9834268032      1.9183797067      1.2885964166
 H      1.2649386655      2.2724272076      2.3183071012
 C     -0.3523921194      1.2967888474      1.2372283104
 B     -1.1437639635      1.1959398067      2.5800552000
 O     -0.6630187016      1.7278447558      3.7540462373
 C     -1.5291829378      1.2848897466      4.8491090389
 C     -1.6837403295      2.4092928889      5.8409091377
 C     -0.8437645967      0.0706212165      5.5040160570
 C     -2.8621103048      0.8686167101      4.0681206580
 C     -3.8503836723      2.0347907455      3.9456303844
 C     -3.5540150217     -0.3665766035      4.6187397259
 O     -2.3703094665      0.5746687713      2.7251003508
 C     -0.8945964551      0.8149895058      0.0959688442
 C     -0.2370093641      0.7892662803     -1.2693082518
 H     -0.9345441622      0.3219894761     -1.9728915069
 C      0.1245144946      2.1748290455     -1.7803426688
 C      0.9661020431      3.0288131130     -1.1158174414
 C      1.5894254323      2.7672394269      0.1842644495
 H      2.2335925367      3.6141790307      0.5233466292
 H     -0.5824504387     -1.6983722608     -6.0248282374
 H      0.8653139421     -2.5289223914     -6.5119261771
 H      0.9501442830     -0.8343348929     -6.1021944724
 H     -1.1119078768     -3.1386518808     -4.0247135535
 H      0.1587623873     -3.6470025137     -2.9480862800
 H      0.1724071958     -4.2747948285     -4.6047563955
 H      2.7859653262     -4.2491536833     -4.9496137475
 H      2.3721243464     -4.2871218110     -3.1791559193
 H      3.9101312221     -3.7063185623     -3.7052989427
 H      3.2765590133     -1.8721331612     -5.9910039481
 H      4.2343430022     -1.4067324565     -4.5510844240
 H      2.8160863959     -0.3734031389     -5.0346506803
 H      3.0573624689     -0.2795962484     -0.6097217511
 H     -0.7351032284      2.6280720724      6.3274624524
 H     -2.3966746596      2.1291601469      6.6289876864
 H     -2.0322707675      3.3036797954      5.3651071272
 H      0.1984737177      0.3665243904      5.8420034776
 H     -0.6960900962     -0.7874545502      4.7938090883
 H     -1.4244562856     -0.3143223999      6.3787377048
 H     -4.3155894619      2.2435743013      4.9087320897
 H     -4.6606976252      1.7324169565      3.2483575713
 H     -3.3522639794      2.9383508981      3.5501547659
 H     -3.8754356335     -0.2383728600      5.6579714188
 H     -2.8987237831     -1.2606299818      4.5261979747
 H     -4.4880284328     -0.5526068987      4.0187356213
 H     -1.9066604554      0.3631215995      0.1443808002
 H     -0.2145991927      2.4454009684     -2.8039999687
 H      1.2528418816      3.9731491072     -1.6106050369
60
# ORCA AIMD Position Step 3, t=1.50 fs, E_Pot=-1207.42618101 Hartree, Unit is Angstrom
 C      0.5020153342     -1.7952355141     -5.8411341057
 C      0.7979749259     -2.1287486369     -4.3697467887
 O      0.3904469269     -1.0549861990     -3.5432763089
 C     -0.0037230156     -3.3881401374     -3.9536038003
 C      2.3349875263     -2.2725082680     -4.0581045345
 C      2.8615352187     -3.7034059450     -3.9860560354
 C      3.2384956519     -1.4389950695     -4.9747381523
 O      2.4345738522     -1.7228458922     -2.7179394581
 B      1.2847235971     -0.9403343810     -2.5165947664
 C      1.0802150035     -0.0191032809     -1.3161694712
 C      2.1220310347      0.2760449547     -0.4776788851
 C      2.1945886629      1.3400174602      0.5359152368
 H      3.1867995380      1.3723925955      1.0915496174
 C      0.9792722591      1.9186619808      1.2869669057
 H      1.2648833334      2.2690659416      2.3254930777
 C     -0.3497480880      1.2949110571      1.2367060466
 B     -1.1424247609      1.1953382977      2.5807112566
 O     -0.6637218604      1.7308945473      3.7493834886
 C     -1.5297186249      1.2922445467      4.8536886224
 C     -1.6814218824      2.4090333485      5.8397535003
 C     -0.8480643214      0.0677523271      5.5022878053
 C     -2.8647372732      0.8686073198      4.0684780390
 C     -3.8489494726      2.0382144036      3.9448251379
 C     -3.5514058868     -0.3635295821      4.6217590853
 O     -2.3693543774      0.5732828667      2.7239930275
 C     -0.8933323109      0.8232010750      0.0977335209
 C     -0.2379537642      0.7884032386     -1.2695381848
 H     -0.9344124625      0.3211973957     -1.9650767035
 C      0.1210496521      2.1772016971     -1.7799820620
 C      0.9681040023      3.0344024171     -1.1135265108
 C      1.5865998755      2.7685781478      0.1853515484
 H      2.2337676687      3.6232994148      0.5140457081
 H     -0.5694440863     -1.6878200163     -6.0429903109
 H      0.8642921649     -2.5078603325     -6.5002856489
 H      0.9575341647     -0.8390131642     -6.0876971080
 H     -1.1157080296     -3.1436120518     -4.0100685691
 H      0.1507122319     -3.6532461628     -2.9657425710
 H      0.1633762479     -4.2787436381     -4.6096034457
 H      2.8041786683     -4.2521600131     -4.9480444032
 H      2.3826907423     -4.2841940474     -3.1737136531
 H      3.8912710564     -3.7092207607     -3.6935374794
 H      3.2730139033     -1.8785226947     -5.9883597301
 H      4.2224641782     -1.4092068913     -4.5488929650
 H      2.7959814864     -0.3682247771     -5.0315405781
 H      3.0613210704     -0.2713882928     -0.6068965076
 H     -0.7454371412      2.6315177721      6.3275923416
 H     -2.3880483624      2.1233278400      6.6236803948
 H     -2.0335047765      3.2874041263      5.3705255378
 H      0.2086501225      0.3540692939      5.8363041593
 H     -0.6923147442     -0.7960189868      4.7927830528
 H     -1.4324718869     -0.3270421971      6.3735387769
 H     -4.3118098639      2.2319338878      4.9022785194
 H     -4.6626505922      1.7283966486      3.2552350820
 H     -3.3476044258      2.9353089784      3.5465650554
 H     -3.8797091600     -0.2452125407      5.6525911702
 H     -2.8946642293     -1.2562358515      4.5127825894
 H     -4.4935012461     -0.5393231514      4.0208636698
 H     -1.9076187170      0.3743912450      0.1360051093
 H     -0.2106623808      2.4454981015     -2.8090118111
 H      1.2524343895      3.9795878925     -1.6050185114
60
# ORCA AIMD Position Step 4, t=2.00 fs, E_Pot=-1207.41305282 Hartree, Unit is Angstrom
 C      0.5058577250     -1.7940447667     -5.8384985276
 C      0.7974601904     -2.1203757947     -4.3615412808
 O      0.3946511883     -1.0544734238     -3.5428555758
 C      0.0014500262     -3.3921776060     -3.9509315531
 C      2.3316208924     -2.2687062143     -4.0599580065
 C      2.8581259633     -3.6996041432     -3.9875655953
 C      3.2399766892     -1.4404158361     -4.9763472520
 O      2.4375887226     -1.7242076553     -2.7184704935
 B      1.2808340788     -0.9383072546     -2.5165314985
 C      1.0822223039     -0.0254127913     -1.3173595989
 C      2.1243366375      0.2753338173     -0.4814586302
 C      2.1963014226      1.3379943455      0.5372845944
 H      3.1960264443      1.3660499117      1.0900544651
 C      0.9753728242      1.9190243900      1.2855197689
 H      1.2639418131      2.2647084434      2.3293807508
 C     -0.3471888793      1.2930116864      1.2361340577
 B     -1.1411509683      1.1947042517      2.5813593101
 O     -0.6644990645      1.7339231061      3.7447906548
 C     -1.5302100479      1.2993950311      4.8580540129
 C     -1.6791226001      2.4085963100      5.8387021723
 C     -0.8521665233      0.0647879324      5.5005808153
 C     -2.8672456962      0.8687121439      4.0688192562
 C     -3.8475032821      2.0415233395      3.9438663484
 C     -3.5489079229     -0.3605936092      4.6245600993
 O     -2.3683622202      0.5719394801      2.7229879056
 C     -0.8921291102      0.8313611157      0.0994878150
 C     -0.2387808820      0.7876035819     -1.2697057523
 H     -0.9342365355      0.3206017561     -1.9572455136
 C      0.1177691729      2.1797845270     -1.7795835518
 C      0.9698707911      3.0397922506     -1.1114300160
 C      1.5839060011      2.7700047109      0.1865220455
 H      2.2323304308      3.6300106250      0.5045488186
 H     -0.5562542036     -1.6774276466     -6.0604320465
 H      0.8653433526     -2.4905485852     -6.4914566877
 H      0.9650544674     -0.8435133383     -6.0733210824
 H     -1.1163720753     -3.1490223066     -3.9956875630
 H      0.1441475155     -3.6609050860     -2.9784248986
 H      0.1544347985     -4.2807784456     -4.6134025089
 H      2.8219660427     -4.2543821588     -4.9453391938
 H      2.3929385356     -4.2805995479     -3.1697296756
 H      3.8743699325     -3.7113615318     -3.6816616757
 H      3.2695326598     -1.8842215589     -5.9847432280
 H      4.2118477104     -1.4114220404     -4.5462727230
 H      2.7781065310     -0.3669621992     -5.0284668645
 H      3.0645651262     -0.2630006836     -0.6042826549
 H     -0.7547296919      2.6350244437      6.3279330998
 H     -2.3794649619      2.1174658270      6.6182864066
 H     -2.0357305401      3.2735356222      5.3747269394
 H      0.2152953144      0.3409607517      5.8299833076
 H     -0.6893609292     -0.8022845216      4.7929477327
 H     -1.4392165120     -0.3387116235      6.3667840270
 H     -4.3081541796      2.2209515473      4.8965773097
 H     -4.6633810661      1.7249964299      3.2627344273
 H     -3.3436069674      2.9315917893      3.5434073827
 H     -3.8835293967     -0.2519031268      5.6475685649
 H     -2.8919237201     -1.2503981641      4.4997558508
 H     -4.4965895339     -0.5258546030      4.0242592314
 H     -1.9069476888      0.3865139831      0.1278918847
 H     -0.2062417521      2.4452338057     -2.8118642341
 H      1.2515855581      3.9848220910     -1.5987614168
60
# ORCA AIMD Position Step 5, t=2.50 fs, E_Pot=-1207.40168250 Hartree, Unit is Angstrom
 C      0.5095368015     -1.7924251952     -5.8354099567
 C      0.7969189412     -2.1122687095     -4.3535341004
 O      0.3988163923     -1.0539122781     -3.5424043522
 C      0.0062558874     -3.3960345730     -3.9488634297
 C      2.3283166463     -2.2649465575     -4.0617383292
 C      2.8545092559     -3.6958919039     -3.9890792280
 C      3.2409869170     -1.4415576890     -4.9780278608
 O      2.4404447447     -1.7254873600     -2.7190537604
 B      1.2772833086     -0.9364741424     -2.5164806544
 C      1.0842384188     -0.0315218562     -1.3183561898
 C      2.1265325960      0.2746657035     -0.4852724134
 C      2.1981463804      1.3360106113      0.5387019388
 H      3.2013686727      1.3598845715      1.0867223798
 C      0.9717775321      1.9194746272      1.2842768067
 H      1.2620344564      2.2593281069      2.3297161908
 C     -0.3447225883      1.2910995400      1.2355499691
 B     -1.1399508673      1.1940278603      2.5819807560
 O     -0.6653508470      1.7369463285      3.7402845930
 C     -1.5306427076      1.3062831986      4.8621515596
 C     -1.6768418310      2.4079275612      5.8377725060
 C     -0.8560439455      0.0617160067      5.4988860935
 C     -2.8696102338      0.8689669252      4.0691443460
 C     -3.8460272077      2.0446745064      3.9427217521
 C     -3.5465347484     -0.3577699588      4.6270874520
 O     -2.3673334190      0.5706342793      2.7220948073
 C     -0.8909974005      0.8394617587      0.1011805184
 C     -0.2394491760      0.7868936478     -1.2697789044
 H     -0.9343088904      0.3200375783     -1.9496916453
 C      0.1147010919      2.1825990361     -1.7791337391
 C      0.9713586508      3.0449445871     -1.1095439124
 C      1.5813526695      2.7715307235      0.1877822584
 H      2.2292309587      3.6341629741      0.4950155144
 H     -0.5432550112     -1.6671663026     -6.0770658158
 H      0.8692226237     -2.4782594840     -6.4864826494
 H      0.9729375743     -0.8473675489     -6.0592069141
 H     -1.1136694934     -3.1548637437     -3.9816724986
 H      0.1394859259     -3.6705146936     -2.9844524954
 H      0.1457024708     -4.2808065959     -4.6161658806
 H      2.8391868551     -4.2558444961     -4.9415890740
 H      2.4025298176     -4.2764221100     -3.1672199100
 H      3.8603235047     -3.7125184664     -3.6694827163
 H      3.2661741107     -1.8892416902     -5.9803733113
 H      4.2032421409     -1.4132813530     -4.5429341402
 H      2.7628545546     -0.3699833945     -5.0255128435
 H      3.0673616740     -0.2546527381     -0.6020079041
 H     -0.7622997813      2.6387468170      6.3287598204
 H     -2.3712421474      2.1114514123      6.6131343643
 H     -2.0393780879      3.2630799891      5.3772198818
 H      0.2180345772      0.3271926869      5.8230827357
 H     -0.6873956840     -0.8060730349      4.7942491180
 H     -1.4446289248     -0.3492384714      6.3584859768
 H     -4.3048449613      2.2108988397      4.8922166374
 H     -4.6629460667      1.7222666962      3.2706856929
 H     -3.3402361128      2.9274425113      3.5406303814
 H     -3.8869003064     -0.2583809037      5.6434389457
 H     -2.8905601622     -1.2431657035      4.4871825887
 H     -4.4971405556     -0.5122791243      4.0289528014
 H     -1.9047436926      0.3994965465      0.1201596844
 H     -0.2013783838      2.4446326870     -2.8125330157
 H      1.2503476939      3.9889972177     -1.5919215558
60
# ORCA AIMD Position Step 6, t=3.00 fs, E_Pot=-1207.39401074 Hartree, Unit is Angstrom
 C      0.5130434373     -1.7903295009     -5.8317923778
 C      0.7963474801     -2.1044939604     -4.3457730758
 O      0.4029171992     -1.0532694949     -3.5419137692
 C      0.0106682993     -3.3996719351     -3.9474490289
 C      2.3250926923     -2.2612395674     -4.0634348084
 C      2.8506591113     -3.6922599211     -3.9906000546
 C      3.2414428685     -1.4424008723     -4.9797753835
 O      2.4431261864     -1.7266704839     -2.7196886328
 B      1.2741402566     -0.9348675914     -2.5164306878
 C      1.0862421391     -0.0374031267     -1.3191399142
 C      2.1286062896      0.2740644014     -0.4891047765
 C      2.2001126817      1.3340616783      0.5401503409
 H      3.2027141054      1.3539636053      1.0815818617
 C      0.9685293530      1.9200138081      1.2832427282
 H      1.2591438625      2.2529694182      2.3264520630
 C     -0.3423558628      1.2891838255      1.2349918892
 B     -1.1388322380      1.1932996145      2.5825564144
 O     -0.6662774246      1.7399800744      3.7358819106
 C     -1.5310022008      1.3128498929      4.8659268880
 C     -1.6745803007      2.4070007995      5.8369737870
 C     -0.8596812872      0.0585348080      5.4971896495
 C     -2.8718052598      0.8694069252      4.0694539924
 C     -3.8445044811      2.0476265372      3.9413741452
 C     -3.5442951606     -0.3550490831      4.6292989104
 O     -2.3662685807      0.5693629095      2.7213234303
 C     -0.8899391391      0.8474988646      0.1027597924
 C     -0.2399181472      0.7863004727     -1.2697266169
 H     -0.9349070581      0.3193481750     -1.9426936570
 C      0.1118737777      2.1856601532     -1.7786106815
 C      0.9725257999      3.0498178793     -1.1078768079
 C      1.5789390796      2.7731554198      0.1891328874
 H      2.2245255952      3.6357483100      0.4856543066
 H     -0.5308006843     -1.6570065128     -6.0928225177
 H      0.8764272554     -2.4717461662     -6.4859486388
 H      0.9814058011     -0.8501431477     -6.0454847541
 H     -1.1075582338     -3.1610760727     -3.9681246451
 H      0.1370093938     -3.6824173203     -2.9829052941
 H      0.1373180178     -4.2788471692     -4.6179848248
 H      2.8557145551     -4.2566023139     -4.9369449682
 H      2.4111059890     -4.2717888682     -3.1661354937
 H      3.8497818450     -3.7124793259     -3.6568622850
 H      3.2630000729     -1.8936324316     -5.9755266897
 H      4.1972201788     -1.4147049066     -4.5386534453
 H      2.7505233237     -0.3774271523     -5.0227714827
 H      3.0700011153     -0.2465716597     -0.6001991880
 H     -0.7675757196      2.6428278352      6.3302980205
 H     -2.3636889304      2.1051627256      6.6085496064
 H     -2.0447642997      3.2567380410      5.3776812946
 H      0.2166869914      0.3128154553      5.8157000055
 H     -0.6865605563     -0.8073362415      4.7965298270
 H     -1.4487252861     -0.3585792460      6.3487579116
 H     -4.3020543020      2.2020128325      4.8896793606
 H     -4.6614752317      1.7202260890      3.2788647939
 H     -3.3374229539      2.9231509989      3.5381598166
 H     -3.8898148848     -0.2645929314      5.6406785170
 H     -2.8905546381     -1.2346830030      4.4751138190
 H     -4.4951458872     -0.4986965448      4.0348878914
 H     -1.9012135212      0.4132969454      0.1129239515
 H     -0.1961532564      2.4437538313     -2.8111210398
 H      1.2487909533      3.9923309834     -1.5846256061
60
# ORCA AIMD Position Step 7, t=3.50 fs, E_Pot=-1207.39028095 Hartree, Unit is Angstrom
 C      0.5163934838     -1.7877641747     -5.8276291314
 C      0.7957455007     -2.0971282497     -4.3383141459
 O      0.4069230287     -1.0525103420     -3.5413740617
 C      0.0146826162     -3.4030645146     -3.9466489958
 C      2.3219704961     -2.2576005871     -4.0650353639
 C      2.8465811340     -3.6886962119     -3.9921224727
 C      3.2412909577     -1.4429382671     -4.9815698808
 O      2.4456158690     -1.7277421302     -2.7203742201
 B      1.2714744285     -0.9335191956     -2.5163679524
 C      1.0882101398     -0.0430241933     -1.3196918832
 C      2.1305433839      0.2735544585     -0.4929355737
 C      2.2021697920      1.3321449149      0.5416014250
 H      3.2001607068      1.3483656656      1.0747801068
 C      0.9656680043      1.9206357745      1.2824056387
 H      1.2553209032      2.2457535130      2.3197580141
 C     -0.3400961192      1.2872761982      1.2344983842
 B     -1.1378034047      1.1925112124      2.5830662242
 O     -0.6672778472      1.7430370749      3.7316032472
 C     -1.5312739757      1.3190289459      4.8693212589
 C     -1.6723441903      2.4058288750      5.8363075138
 C     -0.8630720874      0.0552567147      5.4954744195
 C     -2.8738024941      0.8700662684      4.0697492960
 C     -3.8429230904      2.0503386699      3.9398265606
 C     -3.5421965215     -0.3524133493      4.6311672155
 O     -2.3651695926      0.5681222498      2.7206840660
 C     -0.8889488555      0.8554639677      0.1041725392
 C     -0.2401502443      0.7858507819     -1.2695214204
 H     -0.9362646616      0.3184048443     -1.9364955697
 C      0.1093185530      2.1889733333     -1.7779844926
 C      0.9733317106      3.0543634066     -1.1064319811
 C      1.5766570229      2.7748635970      0.1905678958
 H      2.2183832048      3.6349021649      0.4767277554
 H     -0.5192104622     -1.6469336246     -6.1076311532
 H      0.8870808824     -2.4710716693     -6.4898030117
 H      0.9906432350     -0.8514801851     -6.0322814707
 H     -1.0981889269     -3.1675536522     -3.9551500888
 H      0.1368496603     -3.6966624832     -2.9738661578
 H      0.1294452097     -4.2750365130     -4.6190309739
 H      2.8714237869     -4.2567377293     -4.9316167128
 H      2.4182927968     -4.2668674172     -3.1663714727
 H      3.8430700107     -3.7110434528     -3.6437628276
 H      3.2600776054     -1.8974722427     -5.9705293652
 H      4.1940998384     -1.4156318661     -4.5333206374
 H      2.7413214626     -0.3892021800     -5.0203471055
 H      3.0727709220     -0.2389866369     -0.5989806873
 H     -0.7701546173      2.6473765272      6.3326866953
 H     -2.3570880215      2.0984972762      6.6048323040
 H     -2.0520239529      3.2547909218      5.3760233332
 H      0.2112713457      0.2979460681      5.8079941997
 H     -0.6869705789     -0.8061578347      4.7995252661
 H     -1.4515967083     -0.3667326128      6.3378224116
 H     -4.2998796116      2.1944973900      4.8892863546
 H     -4.6591683838      1.7188641781      3.2869928102
 H     -3.3350742431      2.9190443091      3.5359054844
 H     -3.8922364227     -0.2704934101      5.6396623460
 H     -2.8918104583     -1.2251984751      4.4635943080
 H     -4.4907471163     -0.4852382756      4.0419162602
 H     -1.8966751728      0.4278128786      0.1063004310
 H     -0.1906899416      2.4426904950     -2.8078590302
 H      1.2470007718      3.9950973058     -1.5770393607
60
# ORCA AIMD Position Step 8, t=4.00 fs, E_Pot=-1207.38896316 Hartree, Unit is Angstrom
 C      0.5196274592     -1.7847888150     -5.8229690817
 C      0.7951159233     -2.0902583561     -4.3312222651
 O      0.4107972021     -1.0516002221     -3.5407753742
 C      0.0183141830     -3.4062018495     -3.9463369092
 C      2.3189759413     -2.2540514587     -4.0665260741
 C      2.8423167808     -3.6851888750     -3.9936294736
 C      3.2405150857     -1.4431770526     -4.9833746229
 O      2.4478947263     -1.7286870039     -2.7211089384
 B      1.2693548172     -0.9324591944     -2.5162769644
 C      1.0901166466     -0.0483464617     -1.3199941783
 C      2.1323299478      0.2731597385     -0.4967388735
 C      2.2042659109      1.3302598825      0.5430144829
 H      3.1940431376      1.3431810334      1.0665948009
 C      0.9632288539      1.9213264883      1.2817364234
 H      1.2506940550      2.2378840962      2.3100448283
 C     -0.3379522727      1.2853908142      1.2341072359
 B     -1.1368731790      1.1916561971      2.5834895821
 O     -0.6683493056      1.7461254036      3.7274744335
 C     -1.5314437179      1.3247469211      4.8722724629
 C     -1.6701466008      2.4044683364      5.8357693722
 C     -0.8662189130      0.0519102201      5.4937215182
 C     -2.8755711291      0.8709764974      4.0700317868
 C     -3.8412781025      2.0527722801      3.9381052863
 C     -3.5402458519     -0.3498387355      4.6326837922
 O     -2.3640401952      0.5669107920      2.7201873798
 C     -0.8880148064      0.8633410629      0.1053658345
 C     -0.2401140751      0.7855689692     -1.2691421313
 H     -0.9385411696      0.3171258479     -1.9312826997
 C      0.1070693253      2.1925325119     -1.7772188739
 C      0.9737386584      3.0585262221     -1.1052082935
 C      1.5744912707      2.7766247905      0.1920739129
 H      2.2110940063      3.6319151200      0.4685501558