60
# ORCA AIMD Force Step 0, t=0.00 fs, E_Pot=-1207.45050325 Hartree, Unit is Hartree/Angstrom
 C      0.0000000000      0.0000000000      0.0000000000
 C      0.0000000000      0.0000000000      0.0000000000
 O      0.0000000000      0.0000000000      0.0000000000
 C      0.0000000000      0.0000000000      0.0000000000
 C      0.0000000000      0.0000000000      0.0000000000
 C      0.0000000000      0.0000000000      0.0000000000
 C      0.0000000000      0.0000000000      0.0000000000
 O      0.0000000000      0.0000000000      0.0000000000
 B      0.0000000000      0.0000000000      0.0000000000
 C      0.0000000000      0.0000000000      0.0000000000
 C      0.0000000000      0.0000000000      0.0000000000
 C      0.0000000000      0.0000000000      0.0000000000
 H      0.0000000000      0.0000000000      0.0000000000
 C      0.0000000000      0.0000000000      0.0000000000
 H      0.0000000000      0.0000000000      0.0000000000
 C      0.0000000000      0.0000000000      0.0000000000
 B      0.0000000000      0.0000000000      0.0000000000
 O      0.0000000000      0.0000000000      0.0000000000
 C      0.0000000000      0.0000000000      0.0000000000
 C      0.0000000000      0.0000000000      0.0000000000
 C      0.0000000000      0.0000000000      0.0000000000
 C      0.0000000000      0.0000000000      0.0000000000
 C      0.0000000000      0.0000000000      0.0000000000
 C      0.0000000000      0.0000000000      0.0000000000
 O      0.0000000000      0.0000000000      0.0000000000
 C      0.0000000000      0.0000000000      0.0000000000
 C      0.0000000000      0.0000000000      0.0000000000
 H      0.0000000000      0.0000000000      0.0000000000
 C      0.0000000000      0.0000000000      0.0000000000
 C      0.0000000000      0.0000000000      0.0000000000
 C      0.0000000000      0.0000000000      0.0000000000
 H      0.0000000000      0.0000000000      0.0000000000
 H      0.0000000000      0.0000000000      0.0000000000
 H      0.0000000000      0.0000000000      0.0000000000
 H      0.0000000000      0.0000000000      0.0000000000
 H      0.0000000000      0.0000000000      0.0000000000
 H      0.0000000000      0.0000000000      0.0000000000
 H      0.0000000000      0.0000000000      0.0000000000
 H      0.0000000000      0.0000000000      0.0000000000
 H      0.0000000000      0.0000000000      0.0000000000
 H      0.0000000000      0.0000000000      0.0000000000
 H      0.0000000000      0.0000000000      0.0000000000
 H      0.0000000000      0.0000000000      0.0000000000
 H      0.0000000000      0.0000000000      0.0000000000
 H      0.0000000000      0.0000000000      0.0000000000
 H      0.0000000000      0.0000000000      0.0000000000
 H      0.0000000000      0.0000000000      0.0000000000
 H      0.0000000000      0.0000000000      0.0000000000
 H      0.0000000000      0.0000000000      0.0000000000
 H      0.0000000000      0.0000000000      0.0000000000
 H      0.0000000000      0.0000000000      0.0000000000
 H      0.0000000000      0.0000000000      0.0000000000
 H      0.0000000000      0.0000000000      0.0000000000
 H      0.0000000000      0.0000000000      0.0000000000
 H      0.0000000000      0.0000000000      0.0000000000
 H      0.0000000000      0.0000000000      0.0000000000
 H      0.0000000000      0.0000000000      0.0000000000
 H      0.0000000000      0.0000000000      0.0000000000
 H      0.0000000000      0.0000000000      0.0000000000
 H      0.0000000000      0.0000000000      0.0000000000
60
# ORCA AIMD Force Step 1, t=0.50 fs, E_Pot=-1207.44697584 Hartree, Unit is Hartree/Angstrom
 C     -0.0096043982      0.0216043790      0.0145105138
 C     -0.0000327693     -0.0127830904     -0.0084310971
 O      0.0088927894     -0.0088647349      0.0027931383
 C     -0.0263401636      0.0047239152     -0.0278499788
 C      0.0011404979     -0.0018655588      0.0066857673
 C     -0.0072583083     -0.0119633269      0.0021779381
 C     -0.0209232519      0.0221290206     -0.0056106124
 O     -0.0236010790      0.0070838927     -0.0141073436
 B      0.0179074136     -0.0126679370     -0.0056805832
 C      0.0137073427      0.0188617559      0.0235378079
 C     -0.0151878496     -0.0030875380     -0.0144384420
 C      0.0115615355      0.0082265719      0.0070647044
 H     -0.0349104700      0.0002348651     -0.0187046890
 C      0.0241098851      0.0082133040      0.0152953286
 H     -0.0083867757     -0.0110810586     -0.0330354633
 C     -0.0109167563     -0.0075345887     -0.0222768634
 B     -0.0074078010     -0.0022364849      0.0045932657
 O     -0.0177818270     -0.0114873141      0.0065554339
 C      0.0025811120     -0.0144851996     -0.0183469368
 C     -0.0023707354     -0.0067373289      0.0094882721
 C      0.0180178477     -0.0091301563      0.0036540795
 C      0.0115128500      0.0075973171     -0.0026067507
 C     -0.0028186283     -0.0044854962     -0.0115177988
 C     -0.0108410094     -0.0130440668     -0.0143152973
 O      0.0095428397      0.0118291032      0.0194660325
 C     -0.0022248612     -0.0017791189      0.0164149337
 C      0.0067625479      0.0029534005      0.0005634148
 H      0.0088765120      0.0074515503      0.0087684000
 C      0.0224291377      0.0276106246      0.0066634637
 C     -0.0252777477     -0.0228479337     -0.0246920533
 C      0.0147112822      0.0057338011      0.0100534932
 H     -0.0184122301     -0.0257738109     -0.0056824994
 H      0.0140778117     -0.0027390157      0.0068598051
 H      0.0052650300     -0.0097517374     -0.0045555481
 H     -0.0044365750     -0.0112398404      0.0029167747
 H      0.0318856229     -0.0055744352     -0.0009448021
 H      0.0063117004     -0.0033022576      0.0119463116
 H     -0.0015686664      0.0216250496      0.0130775021
 H     -0.0013321757      0.0112060867      0.0173254878
 H      0.0042027816      0.0106306561     -0.0184949318
 H     -0.0024990450      0.0043555918     -0.0037817907
 H     -0.0007490375      0.0089402170      0.0184856437
 H     -0.0062718998      0.0004584484     -0.0026149225
 H      0.0172684140     -0.0366746778      0.0015247103
 H     -0.0168038166      0.0086150406      0.0005920401
 H     -0.0063103161     -0.0033486890     -0.0054131798
 H      0.0084589496      0.0026187087     -0.0103958581
 H     -0.0009404488      0.0006698457     -0.0006974375
 H     -0.0333038476     -0.0071957162     -0.0081998290
 H     -0.0062907391      0.0237513928      0.0152331397
 H      0.0139497378      0.0108484663     -0.0197620404
 H      0.0055639077      0.0005089678     -0.0077582236
 H      0.0170508857      0.0064267086      0.0121754726
 H     -0.0093285769     -0.0151783101      0.0068916645
 H      0.0065327998     -0.0000999267     -0.0111320692
 H     -0.0149538758      0.0194957315      0.0032459833
 H      0.0252204809      0.0043423083      0.0144594062
 H      0.0228500349      0.0108860802      0.0002348071
 H      0.0068319168     -0.0046849676      0.0264814326
 H     -0.0073913278     -0.0189933872      0.0110948179
60
# ORCA AIMD Force Step 2, t=1.00 fs, E_Pot=-1207.43832405 Hartree, Unit is Hartree/Angstrom
 C     -0.0187739708      0.0421103769      0.0369437498
 C     -0.0018562707     -0.0284380855     -0.0216740324
 O      0.0002865009     -0.0028990132      0.0038465701
 C     -0.0462273103      0.0157082079     -0.0605178115
 C      0.0061561473     -0.0056526904      0.0099210143
 C     -0.0173098671     -0.0168410262      0.0022565106
 C     -0.0453474008      0.0360596475     -0.0086417966
 O     -0.0312306538      0.0127015928     -0.0132273501
 B      0.0329106258     -0.0205642699     -0.0048506388
 C      0.0087340522      0.0281909705      0.0283184523
 C     -0.0173352206      0.0003728957     -0.0101469803
 C      0.0182296376      0.0091857899      0.0090069416
 H     -0.0470589004      0.0011789856     -0.0238208531
 C      0.0378625374      0.0119625937      0.0266790447
 H     -0.0114731111     -0.0136909097     -0.0437956836
 C     -0.0145172863     -0.0049327639     -0.0156226006
 B     -0.0096801299     -0.0035644394      0.0014637941
 O     -0.0175940320     -0.0101728603      0.0146198849
 C      0.0056021510     -0.0291277679     -0.0308399781
 C     -0.0041656638     -0.0197768254      0.0151705952
 C      0.0301699327     -0.0128016365      0.0050551068
 C      0.0178334698      0.0142982425     -0.0029713134
 C     -0.0012591741     -0.0141185396     -0.0200559189
 C     -0.0174624239     -0.0190009629     -0.0290380535
 O      0.0087509582      0.0119432849      0.0229118053
 C     -0.0080123177     -0.0096063239      0.0066864419
 C      0.0143258661      0.0074063657      0.0058140053
 H      0.0050215532      0.0054460318      0.0044528149
 C      0.0296558087      0.0326655530      0.0059244817
 C     -0.0352811882     -0.0318585988     -0.0319123730
 C      0.0215560176      0.0113599584      0.0127695827
 H     -0.0224262304     -0.0328271317     -0.0044435266
 H      0.0082002508     -0.0030672685      0.0098241260
 H      0.0185227075     -0.0346123699     -0.0242339649
 H     -0.0016515396     -0.0043482516      0.0000119769
 H      0.0417756421     -0.0064259891     -0.0029332633
 H      0.0151849717     -0.0121606624      0.0451100541
 H      0.0000718077      0.0264532341      0.0152961814
 H     -0.0046619779      0.0119999223      0.0178445035
 H     -0.0004317717      0.0107311814     -0.0212293463
 H      0.0147156112      0.0082058079     -0.0016068757
 H      0.0002178353      0.0103356434      0.0172064974
 H      0.0069531034      0.0023694764      0.0017727757
 H      0.0272627471     -0.0508085127      0.0004767537
 H     -0.0144960761      0.0056143910     -0.0013954601
 H      0.0051136673     -0.0014606496     -0.0012142362
 H      0.0038239145      0.0014305269     -0.0059658624
 H     -0.0079341828      0.0195611168     -0.0099735437
 H     -0.0457587860     -0.0087017056     -0.0091633593
 H     -0.0097856661      0.0308609146      0.0176036544
 H      0.0176254242      0.0143206865     -0.0224449549
 H      0.0017414522      0.0058450635      0.0020316233
 H      0.0185734916      0.0083678371      0.0110984490
 H     -0.0102424579     -0.0131593937      0.0071142180
 H      0.0070567498      0.0013711621     -0.0028236974
 H     -0.0183315257      0.0213998197      0.0051539951
 H      0.0322524192      0.0033299683      0.0176049904
 H      0.0248306745      0.0119683199      0.0024187361
 H      0.0073303732     -0.0053994163      0.0310074259
 H     -0.0072560725     -0.0196646352      0.0108557894
60
# ORCA AIMD Force Step 3, t=1.50 fs, E_Pot=-1207.42618101 Hartree, Unit is Hartree/Angstrom
 C     -0.0279987006      0.0614945573      0.0596109575
 C     -0.0032292973     -0.0444450953     -0.0349657137
 O     -0.0085934562      0.0036471713      0.0050886159
 C     -0.0625650555      0.0275366761     -0.0911662746
 C      0.0112277971     -0.0094492334      0.0130555993
 C     -0.0263603998     -0.0201550288      0.0018391533
 C     -0.0682243283      0.0461669812     -0.0104762288
 O     -0.0381709100      0.0178519300     -0.0124117272
 B      0.0472022897     -0.0278475137     -0.0036578866
 C      0.0037260951      0.0371847641      0.0328551618
 C     -0.0201293520      0.0044217134     -0.0055467888
 C      0.0215797334      0.0097478407      0.0088458991
 H     -0.0555919307      0.0022795852     -0.0268589550
 C      0.0502186016      0.0143808470      0.0347234587
 H     -0.0135725182     -0.0150147822     -0.0510602976
 C     -0.0178062554     -0.0022905649     -0.0086187497
 B     -0.0118050898     -0.0048703427     -0.0018333829
 O     -0.0171825724     -0.0087303086      0.0224547155
 C      0.0085508569     -0.0437564675     -0.0431225543
 C     -0.0055344371     -0.0321744804      0.0200565455
 C      0.0398336466     -0.0149152966      0.0053989795
 C      0.0239473909      0.0208581616     -0.0032645503
 C      0.0009295185     -0.0239490495     -0.0273222633
 C     -0.0225854935     -0.0229476807     -0.0425104930
 O      0.0078964182      0.0119599188      0.0261468097
 C     -0.0122353778     -0.0166174114     -0.0034449889
 C      0.0222392779      0.0123288568      0.0115867962
 H      0.0006678659      0.0030678891     -0.0003248733
 C      0.0366982445      0.0362847051      0.0066026254
 C     -0.0446885090     -0.0413216627     -0.0375061036
 C      0.0265199335      0.0148600658      0.0142697703
 H     -0.0247147619     -0.0375811965     -0.0023168415
 H      0.0018532158     -0.0032269712      0.0123741957
 H      0.0318335703     -0.0590077654     -0.0439316714
 H      0.0014534771      0.0030732566     -0.0029273261
 H      0.0483258937     -0.0065298385     -0.0051234733
 H      0.0233505073     -0.0212221761      0.0775033868
 H      0.0020366761      0.0296139363      0.0164125935
 H     -0.0078681603      0.0122354244      0.0172860453
 H     -0.0056597566      0.0099987745     -0.0227423698
 H      0.0314028562      0.0118791126      0.0008849524
 H      0.0012397074      0.0110520847      0.0147007355
 H      0.0202149859      0.0041546673      0.0064075484
 H      0.0356450219     -0.0603722778     -0.0007866822
 H     -0.0112387281      0.0021474434     -0.0034467592
 H      0.0167154568      0.0006801708      0.0032209866
 H     -0.0012929052     -0.0000252905     -0.0009370853
 H     -0.0151029553      0.0380777350     -0.0190441543
 H     -0.0548489008     -0.0090930452     -0.0091020120
 H     -0.0128643519      0.0358508363      0.0183176311
 H      0.0200623459      0.0170293018     -0.0234523944
 H     -0.0021769236      0.0109396680      0.0120019260
 H      0.0188727847      0.0097961816      0.0090198015
 H     -0.0104868302     -0.0101210987      0.0068834566
 H      0.0072594392      0.0027882153      0.0058756724
 H     -0.0205072197      0.0217917783      0.0069428076
 H      0.0369347689      0.0018522419      0.0192617490
 H      0.0250316909      0.0122390400      0.0046382928
 H      0.0071220533     -0.0055443258      0.0334521226
 H     -0.0067313813     -0.0189290410      0.0098615605
60
# ORCA AIMD Force Step 4, t=2.00 fs, E_Pot=-1207.41305282 Hartree, Unit is Hartree/Angstrom
 C     -0.0354057695      0.0764075735      0.0786913962
 C     -0.0040766106     -0.0607274657     -0.0481923637
 O     -0.0177032878      0.0107401919      0.0065794526
 C     -0.0745150270      0.0388246524     -0.1140280156
 C      0.0163128911     -0.0133086563      0.0160528793
 C     -0.0328043846     -0.0219044790      0.0014738190
 C     -0.0879819693      0.0529193652     -0.0106707326
 O     -0.0444590934      0.0225842195     -0.0116418421
 B      0.0607044876     -0.0345028401     -0.0021215009
 C     -0.0013402981      0.0457949983      0.0370203524
 C     -0.0233680488      0.0088852763     -0.0006548217
 C      0.0215794725      0.0101473663      0.0067356041
 H     -0.0605547281      0.0034939891     -0.0279125316
 C      0.0611563046      0.0154751412      0.0393364397
 H     -0.0146569166     -0.0151079289     -0.0548120232
 C     -0.0206918232      0.0004599231     -0.0013655268
 B     -0.0137707503     -0.0061082667     -0.0052207474
 O     -0.0165855730     -0.0072178247      0.0300468265
 C      0.0114313938     -0.0583059975     -0.0552246696
 C     -0.0067495681     -0.0415889425      0.0237169639
 C      0.0469896245     -0.0152462818      0.0047418825
 C      0.0299064007      0.0271766820     -0.0034402265
 C      0.0033234372     -0.0336119561     -0.0324568109
 C     -0.0264107058     -0.0247815745     -0.0539883658
 O      0.0069558995      0.0118972892      0.0291614551
 C     -0.0147959807     -0.0228048646     -0.0138006412
 C      0.0301608078      0.0175263911      0.0174537349
 H     -0.0038192620      0.0005546055     -0.0052065840
 C      0.0435266875      0.0384331612      0.0087651586
 C     -0.0534301497     -0.0511976903     -0.0414227712
 C      0.0295694651      0.0160309847      0.0146328743
 H     -0.0252475699     -0.0399658052      0.0006130626
 H     -0.0045417274     -0.0032844661      0.0145070881
 H      0.0431273372     -0.0789565529     -0.0600505831
 H      0.0046227363      0.0104347451     -0.0057763946
 H      0.0515759391     -0.0059285738     -0.0073690275
 H      0.0299179970     -0.0288930204      0.1033496869
 H      0.0043002253      0.0309434455      0.0163094354
 H     -0.0108572820      0.0118953944      0.0156490997
 H     -0.0113042007      0.0084734597     -0.0230395891
 H      0.0457461623      0.0153119815      0.0031737759
 H      0.0023055673      0.0110836486      0.0110782612
 H      0.0320655994      0.0057155972      0.0106645343
 H      0.0423219238     -0.0656778495     -0.0022094429
 H     -0.0072445172     -0.0016400522     -0.0055087570
 H      0.0274907105      0.0028672264      0.0073910366
 H     -0.0065728284     -0.0016088377      0.0043652276
 H     -0.0214726252      0.0539100812     -0.0266492987
 H     -0.0605616998     -0.0084726944     -0.0080883425
 H     -0.0154845499      0.0386591205      0.0173661480
 H      0.0212077595      0.0189139728     -0.0227732877
 H     -0.0057497483      0.0155722203      0.0212065461
 H      0.0179164501      0.0106742942      0.0059883886
 H     -0.0100766940     -0.0061510315      0.0062115797
 H      0.0073433277      0.0040793151      0.0142774351
 H     -0.0213987470      0.0206144829      0.0085410622
 H      0.0391891456     -0.0000238142      0.0194352965
 H      0.0233647850      0.0116578700      0.0068275125
 H      0.0062272735     -0.0051193024      0.0337512319
 H     -0.0058458593     -0.0168438609      0.0081427907
60
# ORCA AIMD Force Step 5, t=2.50 fs, E_Pot=-1207.40168250 Hartree, Unit is Hartree/Angstrom
 C     -0.0388925776      0.0833317756      0.0899550736
 C     -0.0043922229     -0.0770318353     -0.0611457136
 O     -0.0269400928      0.0182613729      0.0083127291
 C     -0.0814104531      0.0478382602     -0.1231807532
 C      0.0213589108     -0.0172620416      0.0188928342
 C     -0.0350918451     -0.0221856816      0.0017822327
 C     -0.1029240820      0.0566804990     -0.0087439021
 O     -0.0500856409      0.0268912905     -0.0109217722
 B      0.0732999522     -0.0404740843     -0.0002371739
 C     -0.0063729647      0.0539279739      0.0407703705
 C     -0.0267331902      0.0135221279      0.0044079296
 C      0.0183127417      0.0103840877      0.0027568841
 H     -0.0619521695      0.0047886398     -0.0270461359
 C      0.0705063682      0.0152654283      0.0405487935
 H     -0.0146884617     -0.0140186086     -0.0550278110
 C     -0.0231547025      0.0032558722      0.0059256666
 B     -0.0155487789     -0.0072490987     -0.0086410369
 O     -0.0158122311     -0.0056735825      0.0373161611
 C      0.0141976041     -0.0725657248     -0.0670020226
 C     -0.0081588962     -0.0455844838      0.0257269455
 C      0.0516059504     -0.0136104718      0.0031477480
 C      0.0356748791      0.0331836421     -0.0034741493
 C      0.0054746355     -0.0426721492     -0.0346039605
 C     -0.0291553272     -0.0244684876     -0.0626444785
 O      0.0059362183      0.0117509191      0.0319333190
 C     -0.0156765766     -0.0281057048     -0.0240975955
 C      0.0376353369      0.0226963651      0.0229754939
 H     -0.0080174784     -0.0018156653     -0.0097837521
 C      0.0500779393      0.0391268399      0.0124096040
 C     -0.0613979335     -0.0612999409     -0.0437029565
 C      0.0306432639      0.0148407639      0.0138791728
 H     -0.0239929197     -0.0399134940      0.0042621178
 H     -0.0105488508     -0.0033096253      0.0162449794
 H      0.0501179091     -0.0903104088     -0.0686578204
 H      0.0075844462      0.0171324715     -0.0084056162
 H      0.0515919568     -0.0046628283     -0.0095370752
 H      0.0341677913     -0.0333704870      0.1167106232
 H      0.0068092082      0.0303578420      0.0148963295
 H     -0.0135363534      0.0110096147      0.0130096313
 H     -0.0171460335      0.0062447526     -0.0221971963
 H      0.0559300992      0.0184639974      0.0046544531
 H      0.0033933811      0.0104720745      0.0065309501
 H      0.0409301750      0.0069733132      0.0138151193
 H      0.0472179008     -0.0670207513     -0.0037539211
 H     -0.0028785481     -0.0055062302     -0.0075068679
 H      0.0363323044      0.0048389963      0.0107235673
 H     -0.0116350273     -0.0031576614      0.0095462491
 H     -0.0259266015      0.0646136436     -0.0314515134
 H     -0.0628812631     -0.0069430176     -0.0061804856
 H     -0.0175952751      0.0392142218      0.0147325579
 H      0.0210255710      0.0199172198     -0.0204160313
 H     -0.0084862913      0.0195401037      0.0285931426
 H      0.0157440682      0.0109917679      0.0021165431
 H     -0.0090945245     -0.0014609424      0.0051556731
 H      0.0075465626      0.0051686180      0.0216172107
 H     -0.0209727397      0.0178532563      0.0098592949
 H      0.0389706083     -0.0022183439      0.0181552491
 H      0.0198747498      0.0102643070      0.0089070061
 H      0.0046909929     -0.0041383938      0.0318906372
 H     -0.0046575131     -0.0135643311      0.0057927735
60
# ORCA AIMD Force Step 6, t=3.00 fs, E_Pot=-1207.39401074 Hartree, Unit is Hartree/Angstrom
 C     -0.0369574071      0.0802935226      0.0904293393
 C     -0.0041635487     -0.0931843072     -0.0737109697
 O     -0.0362267777      0.0261034561      0.0103120639
 C     -0.0830517293      0.0533057097     -0.1151045931
 C      0.0263055669     -0.0213407512      0.0215456286
 C     -0.0320904304     -0.0212070691      0.0033940044
 C     -0.1116007807      0.0576280009     -0.0043066548
 O     -0.0550820334      0.0308094114     -0.0102317253
 B      0.0849260546     -0.0457366913      0.0019801117
 C     -0.0113459019      0.0615435094      0.0440263264
 C     -0.0298531542      0.0180634614      0.0095663189
 C      0.0117449323      0.0105679123     -0.0030203763
 H     -0.0597518394      0.0061313739     -0.0242980573
 C      0.0781843734      0.0137428080      0.0383128964
 H     -0.0136361165     -0.0117847774     -0.0516614961
 C     -0.0251790429      0.0061098014      0.0130899461
 B     -0.0171291762     -0.0082543216     -0.0120277705
 O     -0.0148912327     -0.0041563354      0.0442326322
 C      0.0168160075     -0.0863689681     -0.0783935660
 C     -0.0100980203     -0.0423208449      0.0260102706
 C      0.0536253953     -0.0099087839      0.0006937563
 C      0.0412705238      0.0388063214     -0.0033571514
 C      0.0069759870     -0.0507579927     -0.0330879100
 C     -0.0310456027     -0.0220667316     -0.0677339601
 O      0.0048335980      0.0115374769      0.0344533343
 C     -0.0149199639     -0.0325537836     -0.0340959844
 C      0.0441945239      0.0275190392      0.0276689664
 H     -0.0114639432     -0.0037336488     -0.0136252129
 C      0.0563076357      0.0384059572      0.0174803006
 C     -0.0684922257     -0.0713834155     -0.0444429753
 C      0.0297554680      0.0112401867      0.0120672751
 H     -0.0209660856     -0.0374155340      0.0085335860
 H     -0.0157136984     -0.0033907472      0.0176657927
 H      0.0511515549     -0.0903976261     -0.0670552479
 H      0.0100133835      0.0225100360     -0.0107047829
 H      0.0484607911     -0.0027838264     -0.0114995654
 H      0.0358471427     -0.0333171480      0.1139782670
 H      0.0095095474      0.0278430518      0.0121590376
 H     -0.0158454222      0.0096490513      0.0094930642
 H     -0.0229384969      0.0034550289     -0.0203636196
 H      0.0605683038      0.0212998097      0.0047425914
 H      0.0044829522      0.0092971227      0.0013139402
 H      0.0454895006      0.0078651056      0.0151803710
 H      0.0502462861     -0.0645624358     -0.0053929164
 H      0.0014523004     -0.0092100618     -0.0093716249
 H      0.0422168935      0.0063050833      0.0126617189
 H     -0.0160631040     -0.0044694741      0.0141652860
 H     -0.0274853937      0.0683340673     -0.0324257638
 H     -0.0617861262     -0.0045858084     -0.0034280845
 H     -0.0191650544      0.0375046308      0.0104399555
 H      0.0195195861      0.0200129812     -0.0164426694
 H     -0.0099640899      0.0227146850      0.0332275010
 H      0.0124547881      0.0107685722     -0.0024417608
 H     -0.0076571489      0.0036918176      0.0038008743
 H      0.0081139507      0.0060154409      0.0271704833
 H     -0.0192434807      0.0135591663      0.0108322171
 H      0.0362702110     -0.0046571329      0.0154721088
 H      0.0146626583      0.0081107930      0.0108102633
 H      0.0025716215     -0.0026356988      0.0279360823
 H     -0.0032448276     -0.0093342012      0.0029456506
60
# ORCA AIMD Force Step 7, t=3.50 fs, E_Pot=-1207.39028095 Hartree, Unit is Hartree/Angstrom
 C     -0.0295412140      0.0680460243      0.0797851357
 C     -0.0034973595     -0.1086783023     -0.0855124787
 O     -0.0453251448      0.0339943666      0.0124643549
 C     -0.0796795802      0.0549403141     -0.0906914232
 C      0.0310693149     -0.0255050370      0.0239981642
 C     -0.0235865518     -0.0192310063      0.0066408055
 C     -0.1130087289      0.0556210942      0.0026633801
 O     -0.0593968089      0.0342872257     -0.0095901784
 B      0.0953880842     -0.0502293579      0.0044785263
 C     -0.0161378886      0.0684748083      0.0467648752
 C     -0.0322404776      0.0222252624      0.0146571186
 C      0.0019016184      0.0105999018     -0.0105696388
 H     -0.0538176910      0.0074881334     -0.0196614479
 C      0.0839410766      0.0109249753      0.0326184498
 H     -0.0114512668     -0.0084397884     -0.0446289719
 C     -0.0267602255      0.0088526777      0.0198456457
 B     -0.0184629827     -0.0091057822     -0.0152968903
 O     -0.0138351193     -0.0026847522      0.0506456689
 C      0.0192276228     -0.0993727985     -0.0890957570
 C     -0.0126391331     -0.0313214492      0.0249653564
 C      0.0528877365     -0.0041641761     -0.0025207169
 C      0.0465795133      0.0439305437     -0.0030731201
 C      0.0075696942     -0.0574547047     -0.0276619438
 C     -0.0321824153     -0.0177537680     -0.0686305038
 O      0.0036696993      0.0112361579      0.0366854541
 C     -0.0127166039     -0.0360790415     -0.0434431913
 C      0.0493370158      0.0316422837      0.0311202158
 H     -0.0137271385     -0.0049196880     -0.0163374802
 C      0.0620519518      0.0363502523      0.0237593596
 C     -0.0745353582     -0.0810121829     -0.0438307682
 C      0.0268904975      0.0053271197      0.0092857072
 H     -0.0161903620     -0.0324723327      0.0133115496
 H     -0.0195928150     -0.0036009362      0.0188471699
 H      0.0460155678     -0.0793896028     -0.0552040501
 H      0.0116108210      0.0259839878     -0.0125586843
 H      0.0422095406     -0.0003264956     -0.0131021814
 H      0.0352466303     -0.0285716840      0.0958292209
 H      0.0123166241      0.0234772312      0.0081420058
 H     -0.0177014820      0.0079254646      0.0053030930
 H     -0.0284085765      0.0002814020     -0.0177337680
 H      0.0591244362      0.0237658473      0.0031142259
 H      0.0055532858      0.0076964694     -0.0041897604
 H      0.0449643385      0.0083642936      0.0143113862
 H      0.0512345102     -0.0582825295     -0.0071023093
 H      0.0052447766     -0.0124448064     -0.0110272834
 H      0.0443815366      0.0070155358      0.0127866770
 H     -0.0194329749     -0.0053488909      0.0177729976
 H     -0.0256737038      0.0644581804     -0.0292301002
 H     -0.0571888288     -0.0014832932      0.0001370255
 H     -0.0201622670      0.0335577880      0.0045373242
 H      0.0167326554      0.0192035369     -0.0110016910
 H     -0.0099029037      0.0250218782      0.0344590522
 H      0.0082334525      0.0100601134     -0.0074482890
 H     -0.0059539312      0.0089353923      0.0022851405
 H      0.0092536478      0.0065864589      0.0303156488
 H     -0.0163081906      0.0078895979      0.0113883803
 H      0.0311009969     -0.0072391383      0.0114635094
 H      0.0080022000      0.0053543882      0.0124533461
 H     -0.0000284238     -0.0006788063      0.0220632851
 H     -0.0017162564     -0.0044919345     -0.0002025384
60
# ORCA AIMD Force Step 8, t=4.00 fs, E_Pot=-1207.38896316 Hartree, Unit is Hartree/Angstrom
 C     -0.0179821190      0.0500200767      0.0605223364
 C     -0.0023829087     -0.1234658757     -0.0965753610
 O     -0.0541751688      0.0418234158      0.0148098028
 C     -0.0719463565      0.0536745959     -0.0547863140
 C      0.0355731000     -0.0297794110      0.0261771170
 C     -0.0102117168     -0.0165767309      0.0116598824
 C     -0.1070139773      0.0502395214      0.0118328181
 O     -0.0630855313      0.0373965011     -0.0089351638
 B      0.1046665408     -0.0539312955      0.0072258256
 C     -0.0207823432      0.0747570700      0.0488754813
 C     -0.0335230170      0.0257283281      0.0196504024
 C     -0.0113966634      0.0107121522     -0.0198403731
 H     -0.0440543237      0.0088218277     -0.0131395997
 C      0.0877837228      0.0067699095      0.0233520121
 H     -0.0081245856     -0.0040218274     -0.0338773152
 C     -0.0279140945      0.0115960640      0.0260873819
 B     -0.0195674531     -0.0097514921     -0.0183768478
 O     -0.0126991464     -0.0013550932      0.0565892972
 C      0.0213972981     -0.1113870290     -0.0990877917
 C     -0.0156954754     -0.0136572074      0.0235481733
 C      0.0491745530      0.0035205084     -0.0064054835
 C      0.0516713161      0.0484797511     -0.0026588557
 C      0.0071726101     -0.0625234864     -0.0185822673
 C     -0.0326101946     -0.0118379820     -0.0651240041
 O      0.0024366716      0.0108952308      0.0386372359
 C     -0.0093078659     -0.0388984066     -0.0519573417
 C      0.0527283666      0.0348139091      0.0329585061
 H     -0.0144514099     -0.0051323862     -0.0176223081
 C      0.0672585734      0.0330584410      0.0309931854
 C     -0.0793918640     -0.0897327102     -0.0420683030
 C      0.0222353394     -0.0028393315      0.0056374705