38
# ORCA AIMD Force Step 0, t=0.00 fs, E_Pot=-772.15010867 Hartree, Unit is Hartree/Angstrom
 C      0.0000000000      0.0000000000      0.0000000000
 C      0.0000000000      0.0000000000      0.0000000000
 C      0.0000000000      0.0000000000      0.0000000000
 C      0.0000000000      0.0000000000      0.0000000000
 C      0.0000000000      0.0000000000      0.0000000000
 C      0.0000000000      0.0000000000      0.0000000000
 C      0.0000000000      0.0000000000      0.0000000000
 C      0.0000000000      0.0000000000      0.0000000000
 C      0.0000000000      0.0000000000      0.0000000000
 C      0.0000000000      0.0000000000      0.0000000000
 C      0.0000000000      0.0000000000      0.0000000000
 C      0.0000000000      0.0000000000      0.0000000000
 C      0.0000000000      0.0000000000      0.0000000000
 C      0.0000000000      0.0000000000      0.0000000000
 C      0.0000000000      0.0000000000      0.0000000000
 C      0.0000000000      0.0000000000      0.0000000000
 C      0.0000000000      0.0000000000      0.0000000000
 C      0.0000000000      0.0000000000      0.0000000000
 C      0.0000000000      0.0000000000      0.0000000000
 C      0.0000000000      0.0000000000      0.0000000000
 H      0.0000000000      0.0000000000      0.0000000000
 H      0.0000000000      0.0000000000      0.0000000000
 H      0.0000000000      0.0000000000      0.0000000000
 H      0.0000000000      0.0000000000      0.0000000000
 H      0.0000000000      0.0000000000      0.0000000000
 H      0.0000000000      0.0000000000      0.0000000000
 H      0.0000000000      0.0000000000      0.0000000000
 H      0.0000000000      0.0000000000      0.0000000000
 H      0.0000000000      0.0000000000      0.0000000000
 H      0.0000000000      0.0000000000      0.0000000000
 H      0.0000000000      0.0000000000      0.0000000000
 H      0.0000000000      0.0000000000      0.0000000000
 H      0.0000000000      0.0000000000      0.0000000000
 H      0.0000000000      0.0000000000      0.0000000000
 H      0.0000000000      0.0000000000      0.0000000000
 H      0.0000000000      0.0000000000      0.0000000000
 H      0.0000000000      0.0000000000      0.0000000000
 H      0.0000000000      0.0000000000      0.0000000000
38
# ORCA AIMD Force Step 1, t=0.50 fs, E_Pot=-772.14703514 Hartree, Unit is Hartree/Angstrom
 C     -0.0131750881      0.0045491247     -0.0091717766
 C      0.0141309706     -0.0123319459      0.0117390464
 C     -0.0133241034      0.0147517058     -0.0115788298
 C     -0.0003263336      0.0044482163      0.0033701887
 C      0.0142311696     -0.0076419600      0.0089008840
 C      0.0013390843      0.0026204166      0.0103535576
 C     -0.0169049508      0.0137994927     -0.0137213612
 C      0.0165793413     -0.0128720774      0.0122098882
 C     -0.0180872773      0.0066773758     -0.0121900352
 C      0.0109035125     -0.0075519553      0.0170815845
 C     -0.0179826077      0.0016188382      0.0051945188
 C      0.0031351823      0.0020707829      0.0142199027
 C     -0.0045671464     -0.0022200936     -0.0036359751
 C     -0.0040007585      0.0115804377      0.0241268946
 C      0.0028524644      0.0021435720     -0.0400263162
 C     -0.0037362383      0.0107425967      0.0242521186
 C      0.0196323260     -0.0044035798      0.0039134477
 C     -0.0027497517     -0.0158416461      0.0274895826
 C      0.0051135136     -0.0145671894     -0.0210305413
 C     -0.0012027286     -0.0101069924      0.0105844550
 H      0.0213476582     -0.0105649430      0.0202244584
 H      0.0045906478     -0.0145852971      0.0062509908
 H     -0.0130235311     -0.0231479223     -0.0098875760
 H     -0.0215887925     -0.0043208318     -0.0217698541
 H     -0.0061135581      0.0157929360     -0.0223000292
 H     -0.0125916703      0.0052036457     -0.0048544672
 H     -0.0095772479      0.0110513007      0.0111866225
 H      0.0022931777      0.0004548227      0.0153773777
 H      0.0168299467      0.0113866523     -0.0149921429
 H     -0.0088636191      0.0044773956      0.0054228740
 H      0.0020933458     -0.0017113055      0.0173375561
 H      0.0090915124     -0.0217642340      0.0203061116
 H      0.0076490490     -0.0162718689     -0.0011551861
 H      0.0097537805     -0.0178883876     -0.0366828511
 H     -0.0167254570      0.0020950487     -0.0335298487
 H      0.0109846442      0.0195692693     -0.0371613534
 H      0.0108651554      0.0323144540      0.0028942882
 H      0.0006646168      0.0202088841      0.0212186702
38
# ORCA AIMD Force Step 2, t=1.00 fs, E_Pot=-772.14184314 Hartree, Unit is Hartree/Angstrom
 C     -0.0195420336      0.0058496022     -0.0132894984
 C      0.0110207501     -0.0279422986      0.0061756562
 C     -0.0117250094      0.0190470941     -0.0071129433
 C     -0.0038269229      0.0172983778      0.0021823463
 C      0.0176285876     -0.0129847578      0.0141001908
 C      0.0005334537      0.0063031730      0.0110159871
 C     -0.0184547975      0.0166018336     -0.0111831770
 C      0.0141001850     -0.0084700998      0.0201805563
 C     -0.0163586637      0.0012212665     -0.0053699398
 C      0.0084704086      0.0009275476      0.0108633458
 C     -0.0202695153      0.0014940411      0.0156669383
 C     -0.0017971983      0.0064862949      0.0160042211
 C     -0.0132083132      0.0019371888     -0.0024377580
 C     -0.0007020029      0.0130610320      0.0260658305
 C      0.0052562811      0.0018468158     -0.0543494960
 C     -0.0088038388      0.0242355601      0.0376732834
 C      0.0284216661     -0.0050290856      0.0101883575
 C     -0.0076532311     -0.0209774929      0.0563942097
 C      0.0031490498     -0.0321293142     -0.0412573497
 C     -0.0022237429     -0.0123158554      0.0112000837
 H      0.0300715950     -0.0113437333      0.0265763209
 H      0.0050093454     -0.0065668995      0.0060954149
 H     -0.0138746770     -0.0277178890     -0.0101420489
 H     -0.0249755862     -0.0074574989     -0.0262172808
 H     -0.0076946424      0.0179736602     -0.0240133465
 H     -0.0076859998     -0.0042125298     -0.0040402219
 H     -0.0066139124      0.0084175450      0.0095860916
 H      0.0015299164     -0.0002172415      0.0069173953
 H      0.0206411741      0.0120894661     -0.0161319083
 H     -0.0036703004     -0.0002012721     -0.0027268283
 H      0.0055752028     -0.0024440349      0.0133034390
 H      0.0109020780     -0.0281383333      0.0259598021
 H      0.0055247684     -0.0148899848      0.0046094700
 H      0.0138351070     -0.0279286624     -0.0501762796
 H     -0.0218095330      0.0027297517     -0.0443342569
 H      0.0144612547      0.0267724416     -0.0520719794
 H      0.0128560773      0.0416397072      0.0078737256
 H      0.0014309681      0.0248063163      0.0262172402
38
# ORCA AIMD Force Step 3, t=1.50 fs, E_Pot=-772.13563175 Hartree, Unit is Hartree/Angstrom
 C     -0.0242985580      0.0057070130     -0.0155561515
 C      0.0082131763     -0.0439329963      0.0009452052
 C     -0.0110226048      0.0214954045     -0.0033589187
 C     -0.0090767577      0.0299753313     -0.0005844784
 C      0.0204744815     -0.0169521839      0.0173523716
 C     -0.0008342939      0.0098524832      0.0112088362
 C     -0.0201179653      0.0197438101     -0.0075874930
 C      0.0113870470     -0.0037140322      0.0286264540
 C     -0.0130009599     -0.0034744392      0.0006901128
 C      0.0057356761      0.0096288998      0.0042196668
 C     -0.0221637322      0.0012635153      0.0259778802
 C     -0.0069785469      0.0107197257      0.0176445437
 C     -0.0217146652      0.0058451132     -0.0001800115
 C      0.0036160230      0.0125862616      0.0288196704
 C      0.0077699989      0.0008925884     -0.0673284061
 C     -0.0125605042      0.0359799079      0.0464999248
 C      0.0351257417     -0.0054666596      0.0132753561
 C     -0.0113637257     -0.0232944695      0.0805639690
 C      0.0017273393     -0.0470112067     -0.0614295529
 C     -0.0032258249     -0.0126896825      0.0132670738
 H      0.0370171105     -0.0107919622      0.0309250138
 H      0.0051163342      0.0020883968      0.0055715579
 H     -0.0136090680     -0.0303927953     -0.0094869986
 H     -0.0265626571     -0.0104384555     -0.0288247533
 H     -0.0088505982      0.0188580064     -0.0238946808
 H     -0.0022795068     -0.0136939411     -0.0030092200
 H     -0.0030901381      0.0051009072      0.0073154595
 H      0.0005973437     -0.0009355194     -0.0023429342
 H      0.0230696653      0.0118023792     -0.0160267641
 H      0.0017681062     -0.0046581472     -0.0108940270
 H      0.0089081959     -0.0030506543      0.0083089138
 H      0.0117220139     -0.0325496153      0.0297521309
 H      0.0031538246     -0.0127965162      0.0102980045
 H      0.0167075803     -0.0361753956     -0.0592001619
 H     -0.0251901543      0.0031845757     -0.0515931678
 H      0.0168881256      0.0315241711     -0.0623269450
 H      0.0141618194      0.0479440907      0.0130801219
 H      0.0023016385      0.0276028727      0.0292987856
38
# ORCA AIMD Force Step 4, t=2.00 fs, E_Pot=-772.12942830 Hartree, Unit is Hartree/Angstrom
 C     -0.0273147247      0.0042296661     -0.0159321654
 C      0.0056333022     -0.0595598550     -0.0040895256
 C     -0.0112735931      0.0220451544     -0.0003654362
 C     -0.0160478637      0.0422568557     -0.0049669679
 C      0.0227169403     -0.0194581918      0.0186434897
 C     -0.0021474396      0.0127642583      0.0111694480
 C     -0.0216832139      0.0230038659     -0.0031477255
 C      0.0083643169      0.0013286902      0.0367425522
 C     -0.0079959268     -0.0073082663      0.0058316867
 C      0.0027544643      0.0184428757     -0.0026869222
 C     -0.0236259599      0.0009183913      0.0359371664
 C     -0.0117147557      0.0144943528      0.0185262925
 C     -0.0299731870      0.0094467414      0.0028510802
 C      0.0088738959      0.0101189768      0.0323694854
 C      0.0102684003     -0.0005098871     -0.0787018415
 C     -0.0150874805      0.0458807375      0.0510465762
 C      0.0396353877     -0.0057127201      0.0132127602
 C     -0.0138803372     -0.0231278742      0.0999378436
 C      0.0009373304     -0.0587838964     -0.0809405370
 C     -0.0041672050     -0.0111425527      0.0167899967
 H      0.0420155572     -0.0089886893      0.0331981406
 H      0.0050272588      0.0106628365      0.0048613526
 H     -0.0122208064     -0.0310871194     -0.0079253280
 H     -0.0263123078     -0.0131744350     -0.0295204931
 H     -0.0095346589      0.0183796498     -0.0219389115
 H      0.0029998860     -0.0226871670     -0.0019758298
 H      0.0007755767      0.0013210049      0.0045806143
 H     -0.0004189586     -0.0016514661     -0.0116172928
 H      0.0240250883      0.0105147348     -0.0146361669
 H      0.0067722885     -0.0085803105     -0.0183573634
 H      0.0120259272     -0.0035285184      0.0026709324
 H      0.0115794886     -0.0348853975      0.0316021254
 H      0.0006893667     -0.0102389329      0.0157442476
 H      0.0184605280     -0.0425793841     -0.0640899037
 H     -0.0268512706      0.0034426524     -0.0552834899
 H      0.0182953960      0.0340025769     -0.0681851362
 H      0.0147026719      0.0510330839      0.0183094577
 H      0.0032141012      0.0284983357      0.0303638203
38
# ORCA AIMD Force Step 5, t=2.50 fs, E_Pot=-772.12402059 Hartree, Unit is Hartree/Angstrom
 C     -0.0285046329      0.0015761738     -0.0144480923
 C      0.0031502501     -0.0739958934     -0.0091038196
 C     -0.0124582670      0.0206982567      0.0018795423
 C     -0.0246543400      0.0539196482     -0.0109567403
 C      0.0243092091     -0.0204674756      0.0180294015
 C     -0.0027152768      0.0145553896      0.0111761796
 C     -0.0228667477      0.0260701368      0.0018744296
 C      0.0049327087      0.0065767507      0.0435991066
 C     -0.0013731533     -0.0102261181      0.0099698827
 C     -0.0003882441      0.0272141211     -0.0096581838
 C     -0.0246456326      0.0004454711      0.0453567998
 C     -0.0152853772      0.0175946311      0.0179929182
 C     -0.0379021328      0.0126968501      0.0062900736
 C      0.0149692253      0.0056852255      0.0366624222
 C      0.0126265824     -0.0020975947     -0.0882557569
 C     -0.0164748001      0.0538613756      0.0516190547
 C      0.0418492528     -0.0057388483      0.0100758662
 C     -0.0152037552     -0.0208493531      0.1143799307
 C      0.0008441394     -0.0670741674     -0.0991554051
 C     -0.0049941013     -0.0076721546      0.0217233612
 H      0.0449508251     -0.0060320671      0.0333709940
 H      0.0048972655      0.0183788414      0.0041847230
 H     -0.0097544633     -0.0297985591     -0.0055035887
 H     -0.0242452644     -0.0155792532     -0.0282927429
 H     -0.0097228897      0.0165293211     -0.0182211036
 H      0.0074366152     -0.0306367303     -0.0011962765
 H      0.0047006951     -0.0026226157      0.0016565808
 H     -0.0014088629     -0.0023071472     -0.0200124158
 H      0.0234883406      0.0082685480     -0.0119858366
 H      0.0106218328     -0.0117130335     -0.0243908403
 H      0.0148812080     -0.0038852189     -0.0032177691
 H      0.0105275891     -0.0350946715      0.0314834506
 H     -0.0017097223     -0.0075085578      0.0207953981
 H      0.0191819228     -0.0471251757     -0.0651660188
 H     -0.0267815785      0.0034825694     -0.0553935929
 H      0.0187123158      0.0343681942     -0.0698847576
 H      0.0144240384      0.0508230789      0.0233655131
 H      0.0041026726      0.0274668432      0.0293888079
38
# ORCA AIMD Force Step 6, t=3.00 fs, E_Pot=-772.11984652 Hartree, Unit is Hartree/Angstrom
 C     -0.0278395489     -0.0021323527     -0.0110918146
 C      0.0006427762     -0.0866253728     -0.0144857335
 C     -0.0145783891      0.0174862018      0.0035372141
 C     -0.0348821936      0.0648990732     -0.0185673960
 C      0.0253336462     -0.0200103132      0.0156247607
 C     -0.0018214858      0.0147755057      0.0115741243
 C     -0.0233625059      0.0286068392      0.0072526749
 C      0.0008228443      0.0120534148      0.0482645277
 C      0.0068860009     -0.0123081402      0.0130121026
 C     -0.0037131099      0.0360857222     -0.0166109928
 C     -0.0251984978     -0.0001224058      0.0543900198
 C     -0.0169987471      0.0199206917      0.0155462249
 C     -0.0456840952      0.0156789476      0.0096852252
 C      0.0219400092     -0.0006687303      0.0417031090
 C      0.0147119599     -0.0035819523     -0.0959114422
 C     -0.0167295550      0.0599500044      0.0483587028
 C      0.0417029456     -0.0055950140      0.0037907877
 C     -0.0152516806     -0.0166148746      0.1237236178
 C      0.0015342324     -0.0716915618     -0.1158042437
 C     -0.0057319877     -0.0023076502      0.0280415143
 H      0.0457912148     -0.0020083433      0.0314729810
 H      0.0049434405      0.0244767645      0.0037838175
 H     -0.0062922219     -0.0266010505     -0.0022793475
 H     -0.0204313953     -0.0176023712     -0.0251851860
 H     -0.0094162744      0.0133736639     -0.0128549733
 H      0.0103200030     -0.0371097525     -0.0009445999
 H      0.0084357090     -0.0063954159     -0.0011847070
 H     -0.0022096120     -0.0028377947     -0.0266340018
 H      0.0214507318      0.0050921584     -0.0081128053
 H      0.0127154215     -0.0140034979     -0.0284455766
 H      0.0174713853     -0.0041496695     -0.0089137449
 H      0.0086052960     -0.0331772022      0.0293985986
 H     -0.0039304290     -0.0049731750      0.0253403524
 H      0.0189104506     -0.0497850010     -0.0626023844
 H     -0.0249888439      0.0033081564     -0.0519515177
 H      0.0181246858      0.0326308583     -0.0674031846
 H      0.0133010638      0.0472276241      0.0281019235
 H      0.0049378786      0.0245330568      0.0264082002
38
# ORCA AIMD Force Step 7, t=3.50 fs, E_Pot=-772.11693504 Hartree, Unit is Hartree/Angstrom
 C     -0.0251102292     -0.0067393386     -0.0058888571
 C     -0.0021450669     -0.0962216565     -0.0200802366
 C     -0.0174882605      0.0126528423      0.0043574119
 C     -0.0462204831      0.0746147730     -0.0275109293
 C      0.0256436790     -0.0181993139      0.0117204817
 C      0.0009822247      0.0132896881      0.0124870444
 C     -0.0229366277      0.0302532461      0.0123987628
 C     -0.0037317370      0.0174067663      0.0497704212
 C      0.0162259509     -0.0132879502      0.0148607991
 C     -0.0069913533      0.0443055677     -0.0230191117
 C     -0.0252718187     -0.0008341886      0.0620597014
 C     -0.0163753519      0.0213626102      0.0108243480
 C     -0.0526510468      0.0181840599      0.0126406553
 C      0.0293487111     -0.0088709189      0.0471914933
 C      0.0163982044     -0.0046509675     -0.1012518305
 C     -0.0158802430      0.0637028141      0.0412752055
 C      0.0391102536     -0.0051545420     -0.0054846822
 C     -0.0140603786     -0.0108150918      0.1271286473
 C      0.0029847386     -0.0720463608     -0.1295083811
 C     -0.0061906924      0.0048608847      0.0353557186
 H      0.0442487403      0.0029789395      0.0273892145
 H      0.0053146593      0.0281419759      0.0039281602
 H     -0.0019318728     -0.0215896156      0.0016246816
 H     -0.0150030229     -0.0191251180     -0.0202910352
 H     -0.0086197345      0.0089986854     -0.0061329464
 H      0.0111306349     -0.0416830659     -0.0013801334
 H      0.0115419750     -0.0095984088     -0.0035211891
 H     -0.0027314282     -0.0031915002     -0.0304825608
 H      0.0181123379      0.0012050193     -0.0032210487
 H      0.0123898535     -0.0151744501     -0.0298351273
 H      0.0197222987     -0.0043355460     -0.0138983131
 H      0.0059443504     -0.0290993511      0.0253713680
 H     -0.0057615463     -0.0028285880      0.0292239715
 H      0.0176322558     -0.0503517340     -0.0563605792
 H     -0.0213973731      0.0028522858     -0.0447662525
 H      0.0164623437      0.0288011397     -0.0607057804
 H      0.0112399101      0.0402562744      0.0322758200
 H      0.0055920268      0.0197410876      0.0214708649
38
# ORCA AIMD Force Step 8, t=4.00 fs, E_Pot=-772.11487636 Hartree, Unit is Hartree/Angstrom
 C     -0.0203352349     -0.0120959063      0.0011262453
 C     -0.0053046324     -0.1026229781     -0.0261984996
 C     -0.0210532154      0.0064589520      0.0046109214
 C     -0.0584493311      0.0830754647     -0.0375936535
 C      0.0254042765     -0.0152929519      0.0066965779
 C      0.0059359368      0.0100261271      0.0140788775
 C     -0.0212988752      0.0306542242      0.0170872442
 C     -0.0090022051      0.0227230805      0.0476868325
 C      0.0264743226     -0.0133910210      0.0155988642
 C     -0.0102321427      0.0520549497     -0.0288726324
 C     -0.0248785397     -0.0016354389      0.0685870047
 C     -0.0133172654      0.0220965934      0.0039666124
 C     -0.0590524757      0.0203431760      0.0146993996
 C      0.0371811107     -0.0187267640      0.0530774537
 C      0.0176066092     -0.0050630884     -0.1042921142
 C     -0.0138402870      0.0650401749      0.0301882776
 C      0.0340788796     -0.0044702957     -0.0178194713
 C     -0.0114472002     -0.0033435236      0.1241336878
 C      0.0052530349     -0.0681220366     -0.1401519764
 C     -0.0064066798      0.0135758656      0.0434544043
 H      0.0403760825      0.0088157908      0.0212192017
 H      0.0061767653      0.0290162688      0.0047596135
 H      0.0031135476     -0.0150773506      0.0060459075
 H     -0.0082136146     -0.0201370664     -0.0138529038
 H     -0.0074064771      0.0036860218      0.0015813972
 H      0.0096149203     -0.0443000186     -0.0026075954
 H      0.0138011680     -0.0118945632     -0.0050967999
 H     -0.0028401513     -0.0033266186     -0.0311296172
 H      0.0136471733     -0.0032456391      0.0024942491
 H      0.0096483585     -0.0154795083     -0.0286308175
 H      0.0216659160     -0.0044864912     -0.0177402270
 H      0.0026321164     -0.0229974130      0.0195192972
 H     -0.0071399879     -0.0014129086      0.0323805563
 H      0.0152855339     -0.0486390419     -0.0462852787
 H     -0.0160443209      0.0021172852     -0.0339046256
 H      0.0136132864      0.0226750769     -0.0493848137
 H      0.0082386997      0.0299237237      0.0357660433
 H      0.0060490516      0.0133057426      0.0148022625
38
# ORCA AIMD Force Step 9, t=4.50 fs, E_Pot=-772.11291622 Hartree, Unit is Hartree/Angstrom
 C     -0.0136250276     -0.0180474296      0.0097427343
 C     -0.0088864508     -0.1056470763     -0.0325938651
 C     -0.0248039834     -0.0005916087      0.0044660270
 C     -0.0709066207      0.0901462480     -0.0482459668
 C      0.0245729668     -0.0117117402      0.0012025110
 C      0.0127883698      0.0052764885      0.0162275639
 C     -0.0183504700      0.0295851021      0.0208229139
 C     -0.0148087396      0.0278207044      0.0419720209
 C      0.0369644017     -0.0126337461      0.0153488381
 C     -0.0132250688      0.0588463150     -0.0338312924
 C     -0.0240141488     -0.0025305225      0.0735899634
 C     -0.0081266359      0.0223306206     -0.0045868667
 C     -0.0646899344      0.0222272754      0.0156032530
 C      0.0450336007     -0.0298344051      0.0587740600
 C      0.0183638090     -0.0047348175     -0.1049644035
 C     -0.0104936949      0.0633153313      0.0150600355
 C      0.0266770269     -0.0034607802     -0.0328649829
 C     -0.0073513402      0.0057066429      0.1141065226
 C      0.0082826726     -0.0597765137     -0.1468868440
 C     -0.0062905745      0.0233139418      0.0518149897
 H      0.0341759807      0.0153363138      0.0130606000
 H      0.0075138479      0.0271433243      0.0062775726
 H      0.0085139226     -0.0075844356      0.0106812790
 H     -0.0005035169     -0.0206261610     -0.0063171966
 H     -0.0058841833     -0.0021681808      0.0096807070
 H      0.0059941302     -0.0451017308     -0.0045171345
 H      0.0149567571     -0.0130134412     -0.0056522963
 H     -0.0025155068     -0.0032386670     -0.0284555881
 H      0.0084872916     -0.0079047334      0.0086243252
 H      0.0047668709     -0.0150623248     -0.0250903313
 H      0.0232893523     -0.0046249838     -0.0201064922
 H     -0.0011011680     -0.0152202812      0.0121893722
 H     -0.0080448463     -0.0006859700      0.0347609020
 H      0.0118011778     -0.0443535757     -0.0321734625
 H     -0.0090498971      0.0010720841     -0.0195724900
 H      0.0094984841      0.0141996533     -0.0333242651
 H      0.0042938114      0.0164988330      0.0384065785
 H      0.0062384738      0.0055790201      0.0067511287
38
# ORCA AIMD Force Step 10, t=5.00 fs, E_Pot=-772.11015972 Hartree, Unit is Hartree/Angstrom
 C     -0.0050023948     -0.0244037772      0.0199261998
 C     -0.0126523022     -0.1058285069     -0.0395296554
 C     -0.0287445275     -0.0079887903      0.0043291975
 C     -0.0833574562      0.0958435493     -0.0591746261
 C      0.0236282249     -0.0079076880     -0.0043254754
 C      0.0213406100     -0.0007807071      0.0189713183
 C     -0.0140594527      0.0269638255      0.0238385575
 C     -0.0212878509      0.0327476775      0.0330219719
 C      0.0475271260     -0.0115615232      0.0143702544
 C     -0.0161741520      0.0651841863     -0.0378021168
 C     -0.0227056837     -0.0034830696      0.0774185008
 C     -0.0013722382      0.0224488481     -0.0142603971
 C     -0.0699298878      0.0238866015      0.0150218869
 C      0.0531279525     -0.0418717535      0.0642492909
 C      0.0185668428     -0.0034136117     -0.1031813575
 C     -0.0057854157      0.0586415129     -0.0047430033
 C      0.0171397115     -0.0022108445     -0.0503282435
 C     -0.0015200033      0.0165465622      0.0966273253
 C      0.0120461093     -0.0475954878     -0.1501123196
 C     -0.0060015211      0.0335612697      0.0600178285
 H      0.0258163993      0.0224505891      0.0030856233
 H      0.0093958861      0.0226944225      0.0084175267
 H      0.0139216695      0.0003345691      0.0152937058
 H      0.0076205474     -0.0206661244      0.0017927921
 H     -0.0042199076     -0.0079993693      0.0176381693
 H      0.0004165716     -0.0443091482     -0.0070566543
 H      0.0149992190     -0.0127593998     -0.0051472812
 H     -0.0017165194     -0.0028960910     -0.0228792305
 H      0.0030167930     -0.0125525226      0.0147906310
 H     -0.0016533154     -0.0144038830     -0.0198641189
 H      0.0246477734     -0.0047929511     -0.0207322062
 H     -0.0051821282     -0.0060694468      0.0036252351
 H     -0.0084862033     -0.0010845578      0.0363399957
 H      0.0070427344     -0.0372086339     -0.0136158386
 H     -0.0006257260     -0.0002263851     -0.0022023828
 H      0.0039738755      0.0030787007     -0.0119767043
 H     -0.0004495493      0.0003494294      0.0401910041
 H      0.0062468163     -0.0028591173     -0.0020770861
38
# ORCA AIMD Force Step 11, t=5.50 fs, E_Pot=-772.10591795 Hartree, Unit is Hartree/Angstrom
 C      0.0049820819     -0.0308310699      0.0310986736
 C     -0.0164973383     -0.1035560414     -0.0464915662
 C     -0.0322447360     -0.0148605684      0.0044166261
 C     -0.0947356933      0.1001143902     -0.0693642537
 C      0.0225853932     -0.0045885856     -0.0089694221
 C      0.0307878836     -0.0076139040      0.0218780709
 C     -0.0085826023      0.0228513544      0.0258580260
 C     -0.0280459496      0.0373362079      0.0216834722
 C      0.0571994978     -0.0103173834      0.0130051420
 C     -0.0188662596      0.0705743852     -0.0405349150
 C     -0.0209991002     -0.0044648660      0.0795956955
 C      0.0061861876      0.0226047909     -0.0241698269
 C     -0.0743765115      0.0252917805      0.0130135745
 C      0.0608610782     -0.0540084042      0.0686203998
 C      0.0183034649     -0.0011797624     -0.0987737833
 C      0.0002922403      0.0506931771     -0.0288921771
 C      0.0061077556     -0.0007107379     -0.0688406531
 C      0.0058405948      0.0288765633      0.0721776015
 C      0.0162385072     -0.0323872002     -0.1492774130
 C     -0.0054859655      0.0434031855      0.0670231577
 H      0.0157415756      0.0298013235     -0.0081982711
 H      0.0116091480      0.0162928453      0.0109599571
 H      0.0188463922      0.0078503912      0.0194528468
 H      0.0153805729     -0.0203250425      0.0096509001
 H     -0.0025970130     -0.0131554651      0.0246101548
 H     -0.0063439568     -0.0423147199     -0.0098873949
 H      0.0139003209     -0.0111405787     -0.0035695531
 H     -0.0005732303     -0.0023452898     -0.0151121059
 H     -0.0020827917     -0.0166926910      0.0203855850
 H     -0.0089155547     -0.0136255994     -0.0135706778
 H      0.0256874661     -0.0049848074     -0.0196233478
 H     -0.0092674401      0.0037307485     -0.0054983852
 H     -0.0084789640     -0.0024399540      0.0370857330
 H      0.0010509060     -0.0271328134      0.0091615241
 H      0.0086117628     -0.0017300582      0.0169812640
 H     -0.0028414961     -0.0103487691      0.0139299269
 H     -0.0057893279     -0.0175382442      0.0410533111
 H      0.0060680180     -0.0112619271     -0.0109318926
38
# ORCA AIMD Force Step 12, t=6.00 fs, E_Pot=-772.10009120 Hartree, Unit is Hartree/Angstrom
 C      0.0155311886     -0.0368953011      0.0424594826
 C     -0.0201198201     -0.0995812022     -0.0531477096
 C     -0.0348732936     -0.0203243191      0.0050864490
 C     -0.1041649056      0.1030314283     -0.0778984468
 C      0.0216948298     -0.0024365926     -0.0120016185
 C      0.0404207415     -0.0148032902      0.0246645888
 C     -0.0022383486      0.0175272364      0.0270047060
 C     -0.0348135050      0.0415092663      0.0089750874
 C      0.0652873794     -0.0092804629      0.0116766388
 C     -0.0212911722      0.0749852359     -0.0419049549
 C     -0.0189216422     -0.0054634384      0.0800369178
 C      0.0137471832      0.0229951262     -0.0335368955
 C     -0.0779774119      0.0264794721      0.0097126202
 C      0.0679194781     -0.0652695078      0.0709698688
 C      0.0176414380      0.0018832052     -0.0917107593
 C      0.0074851651      0.0398653695     -0.0565171172
 C     -0.0054267159      0.0009259564     -0.0864840964
 C      0.0143059981      0.0418950043      0.0425121037
 C      0.0204012944     -0.0157822007     -0.1444962822
 C     -0.0048339465      0.0518517838      0.0718093007
 H      0.0047590575      0.0369703269     -0.0199952277
 H      0.0139542582      0.0086576475      0.0136322274
 H      0.0227713306      0.0140872105      0.0227424690
 H      0.0219240522     -0.0197259827      0.0163376250
 H     -0.0012120639     -0.0169432009      0.0298655240
 H     -0.0136068739     -0.0394985440     -0.0127223453
 H      0.0118341888     -0.0083204704     -0.0011076062
 H      0.0007845520     -0.0016214897     -0.0060718604
 H     -0.0061633372     -0.0199150619      0.0248316134
 H     -0.0162526538     -0.0129417298     -0.0069226343
 H      0.0263810180     -0.0051943111     -0.0168958806
 H     -0.0130278964      0.0132112308     -0.0143107543
 H     -0.0081171691     -0.0046384896      0.0370091590
 H     -0.0059514786     -0.0144727735      0.0353209152
 H      0.0177556333     -0.0032954012      0.0361060203
 H     -0.0105462364     -0.0252545324      0.0426911566
 H     -0.0112936979     -0.0356422737      0.0410736477
 H      0.0058018125     -0.0187071708     -0.0188765932
38
# ORCA AIMD Force Step 13, t=6.50 fs, E_Pot=-772.09344869 Hartree, Unit is Hartree/Angstrom
 C      0.0254355320     -0.0420144767      0.0528491060
 C     -0.0232118612     -0.0946675268     -0.0591424467
 C     -0.0362070313     -0.0235612019      0.0066651313
 C     -0.1107653691      0.1046899744     -0.0838336174
 C      0.0211357058     -0.0020462937     -0.0128233490
 C      0.0495576534     -0.0219831481      0.0270218588
 C      0.0045581720      0.0114007095      0.0274671435
 C     -0.0412594488      0.0451689930     -0.0040396310
 C      0.0711542156     -0.0087806686      0.0107770180