38
# ORCA AIMD Position Step 0, t=0.00 fs, E_Pot=-772.15010867 Hartree, Unit is Angstrom
 C      1.6279600073      0.6482070029     -0.7566400034
 C      2.4197610108      1.7250580077     -0.0363070002
 C      3.3413230150      1.4761830066      0.9220420041
 C      3.7054710166      0.1443880006      1.4341970064
 C      2.6658100119     -0.9814380044      1.5912520071
 C      3.7784720169     -1.1013500049      0.5315530024
 C      3.4922580156     -1.0561280047     -0.9131050041
 C      2.5453730114     -0.2949970013     -1.5090240068
 C      1.2398440056     -0.8285300037      1.2467050056
 C      0.7121560032     -0.1125640005      0.2132630010
 C     -0.7623800034      0.0433440002     -0.0110630000
 C     -1.2240880055     -0.0497980002     -1.3379540060
 C     -2.6156700117      0.2350600011     -1.8448890083
 C     -3.3307070149      1.4262250064     -1.2738160057
 C     -3.5225410158      1.6221530073      0.0416590002
 C     -3.0447320136      0.6790320030      1.1049110049
 C     -1.5892750071      0.2801000013      1.1108140050
 C     -3.3818250151     -0.7826230035      1.0128660045
 C     -3.4351790154     -1.5499050069     -0.1624840007
 C     -3.0699800137     -1.1450670051     -1.4455060065
 H      0.9759570044      1.1535110052     -1.4910070067
 H      2.2303190100      2.7720580124     -0.3270470015
 H      3.8737190173      2.3299850104      1.3745140062
 H      4.4726740200      0.1570040007      2.2241410100
 H      2.8421110127     -1.6102400072      2.4783100111
 H      4.5830690205     -1.7984830081      0.8118800036
 H      4.1107390184     -1.7146070077     -1.5452320069
 H      2.4257380109     -0.3581410016     -2.6044060117
 H      0.5422030024     -1.3695260061      1.9068590085
 H     -0.5120360023     -0.4287260019     -2.0872520093
 H     -2.5887400116      0.3089600014     -2.9474770132
 H     -3.6978600166      2.1795830098     -1.9882860089
 H     -4.0433270181      2.5315960113      0.3814820017
 H     -3.3180190149      1.0619310048      2.1042390094
 H     -1.1122610050      0.2220300010      2.1005530094
 H     -3.6041940161     -1.2886600058      1.9639220088
 H     -3.6928610165     -2.6150110117     -0.0389690002
 H     -3.0392820136     -1.9106120086     -2.2346950100
38
# ORCA AIMD Position Step 1, t=0.50 fs, E_Pot=-772.14703514 Hartree, Unit is Angstrom
 C      1.6321244078      0.6466197648     -0.7552533203
 C      2.4197660984      1.7309487794     -0.0290590486
 C      3.3460510962      1.4746311155      0.9220032276
 C      3.7112163296      0.1384929274      1.4370467063
 C      2.6631415211     -0.9799839349      1.5890138974
 C      3.7761070704     -1.0997385792      0.5297384037
 C      3.4946894555     -1.0599544444     -0.9148561993
 C      2.5492696513     -0.2986841596     -1.5098280871
 C      1.2364887086     -0.8285011271      1.2464004783
 C      0.7142683917     -0.1206751080      0.2113485807
 C     -0.7596118157      0.0406593176     -0.0147338165
 C     -1.2223636414     -0.0537845759     -1.3372789129
 C     -2.6102090720      0.2316733899     -1.8445552854
 C     -3.3343144595      1.4243411343     -1.2759212938
 C     -3.5214914283      1.6200211561      0.0443854261
 C     -3.0417828037      0.6753629152      1.1041973340
 C     -1.5875794302      0.2776034920      1.1109112317
 C     -3.3820252713     -0.7814763343      1.0075026456
 C     -3.4352605553     -1.5451018963     -0.1585452617
 C     -3.0674173683     -1.1472088041     -1.4470989383
 H      0.9612233050      1.1416718696     -1.4968664621
 H      2.2211086556      2.7683663301     -0.3261764841
 H      3.8777087460      2.3376601761      1.3722110674
 H      4.4807304241      0.1637366623      2.2339338348
 H      2.8445160637     -1.6191267572      2.4733944392
 H      4.5866346340     -1.7760394082      0.8166390352
 H      4.1069024008     -1.7207573134     -1.5463916528
 H      2.4254811028     -0.3616515270     -2.5985721804
 H      0.5299995304     -1.3664626193      1.9074302352
 H     -0.5053188461     -0.4137005224     -2.0794990184
 H     -2.5986858538      0.3095429540     -2.9448204919
 H     -3.6948605566      2.1892059322     -1.9965010520
 H     -4.0324764124      2.5394062216      0.3637072673
 H     -3.3198957924      1.0814759251      2.1159884705
 H     -1.1048032445      0.2166926572      2.1130128892
 H     -3.6115056772     -1.2944625339      1.9769150164
 H     -3.7009359283     -2.6217667772     -0.0586597428
 H     -3.0468894360     -1.9190342980     -2.2411599381
38
# ORCA AIMD Position Step 2, t=1.00 fs, E_Pot=-772.14184314 Hartree, Unit is Angstrom
 C      1.6362194505      0.6450563791     -0.7539158879
 C      2.4198484366      1.7367759068     -0.0217422880
 C      3.3507093656      1.4731588722      0.9219011301
 C      3.7169635344      0.1326183989      1.4399166527
 C      2.6605491182     -0.9785707101      1.5868230127
 C      3.7737479309     -1.0981117980      0.5279792422
 C      3.4970300395     -1.0637078967     -0.9166835232
 C      2.5532594156     -0.3024440425     -1.5105659360
 C      1.2330323903     -0.8284357299      1.2460291190
 C      0.7164417361     -0.1288326879      0.2095263127
 C     -0.7569401594      0.0379817669     -0.0183785854
 C     -1.2206210355     -0.0577623821     -1.3365256544
 C     -2.6047696049      0.2282724758     -1.8442412252
 C     -3.3379460823      1.4225193618     -1.2778960384
 C     -3.5204255762      1.6178996589      0.0468947911
 C     -3.0388521312      0.6717502047      1.1036157815
 C     -1.5857754476      0.2750813131      1.1110299136
 C     -3.3822406871     -0.7804155303      1.0022861281
 C     -3.4353141942     -1.5403753447     -0.1547189670
 C     -3.0648596582     -1.1494072235     -1.4486350290
 H      0.9478707112      1.1291369862     -1.5014122968
 H      2.2121914317      2.7637222370     -0.3248982362
 H      3.8808527077      2.3438324557      1.3692626038
 H      4.4873857437      0.1701921833      2.2423148923
 H      2.8465244319     -1.6269904814      2.4670231556
 H      4.5893823395     -1.7532424972      0.8210849040
 H      4.1024394912     -1.7261917005     -1.5468233727
 H      2.4253734020     -0.3651346723     -2.5917329736
 H      0.5188845105     -1.3626555751      1.9070252775
 H     -0.4991747458     -0.3983737837     -2.0713878351
 H     -2.6085017040      0.3100148095     -2.9410329470
 H     -3.6912669799      2.1974173447     -2.0033986628
 H     -4.0211206252      2.5461615209      0.3458459151
 H     -3.3211384344      1.0998681461      2.1253560216
 H     -1.0984301661      0.2114883648      2.1232966920
 H     -3.6181065045     -1.2989940821      1.9874957411
 H     -3.7083082778     -2.6264219840     -0.0781745566
 H     -3.0544584340     -1.9261456208     -2.2462468725
38
# ORCA AIMD Position Step 3, t=1.50 fs, E_Pot=-772.13563175 Hartree, Unit is Angstrom
 C      1.6402165213      0.6435215829     -0.7526482400
 C      2.4199912462      1.7424628870     -0.0143757727
 C      3.3553136574      1.4717876176      0.9217598967
 C      3.7227023467      0.1268256840      1.4428048019
 C      2.6580474988     -0.9772254373      1.5847044849
 C      3.7713865609     -1.0964469831      0.5262765069
 C      3.4992747703     -1.0673787167     -0.9185760158
 C      2.5573350265     -0.3062584693     -1.5111949926
 C      1.2294790342     -0.8283635087      1.2456275716
 C      0.7186661634     -0.1370029977      0.2077594981
 C     -0.7543735616      0.0353065458     -0.0219455993
 C     -1.2188844583     -0.0617133851     -1.3356831968
 C     -2.5993905252      0.2248747369     -1.8439398160
 C     -3.3415894718      1.4207650668     -1.2797324933
 C     -3.5193286421      1.6157836348      0.0491123005
 C     -3.0359632259      0.6682621959      1.1032390609
 C     -1.5838120400      0.2725261167      1.1112045924
 C     -3.3824984421     -0.7794671737      0.9973667438
 C     -3.4353507225     -1.5358142486     -0.1511100297
 C     -3.0623085312     -1.1516778181     -1.4501131994
 H      0.9364492719      1.1158352732     -1.5042356046
 H      2.2035812931      2.7586399270     -0.3232198526
 H      3.8830990733      2.3482113420      1.3656465685
 H      4.4924274887      0.1761756570      2.2490051984
 H      2.8480355876     -1.6336997074      2.4590725921
 H      4.5916350096     -1.7306704357      0.8252771035
 H      4.0975356954     -1.7310892283     -1.5466311398
 H      2.4253651979     -0.3686395812     -2.5844279111
 H      0.5090907815     -1.3580521377      1.9055678344
 H     -0.4932564940     -0.3830267141     -2.0634367042
 H     -2.6179755433      0.3103283739     -2.9363699154
 H     -3.6869548788      2.2038124066     -2.0086190689
 H     -4.0093799065      2.5519609204      0.3282460602
 H     -3.3214819101      1.1164799046      2.1314731430
 H     -1.0934648908      0.2064506599      2.1307128928
 H     -3.6237790429     -1.3017902876      1.9947051077
 H     -3.7148586601     -2.6283729555     -0.0972186927
 H     -3.0619506703     -1.9316553985     -2.2496358685
38
# ORCA AIMD Position Step 4, t=2.00 fs, E_Pot=-772.12942830 Hartree, Unit is Angstrom
 C      1.6440973500      0.6420115800     -0.7514604465
 C      2.4201796347      1.7479332141     -0.0069730753
 C      3.3598769659      1.4705283063      0.9215996744
 C      3.7284156069      0.1211727409      1.4457019066
 C      2.6556474742     -0.9759673372      1.5826720667
 C      3.7690106830     -1.0947212060      0.5246279875
 C      3.5014187775     -1.0709568645     -0.9205180251
 C      2.5614901504     -0.3101092903     -1.5116699303
 C      1.2258395249     -0.8283100106      1.2452281133
 C      0.7209313636     -0.1451549660      0.2060083551
 C     -0.7519175358      0.0326269839     -0.0253853646
 C     -1.2171787883     -0.0656223138     -1.3347405666
 C     -2.5941077206      0.2214947064     -1.8436381238
 C     -3.3452283941      1.4190723139     -1.2814188531
 C     -3.5181845401      1.6136635925      0.0509704337
 C     -3.0331309460      0.6649565423      1.1031154015
 C     -1.5816480097      0.2699302283      1.1114527062
 C     -3.3828195129     -0.7786423926      0.9928678451
 C     -3.4353779451     -1.5314914016     -0.1478223082
 C     -3.0597643320     -1.1540274620     -1.4515249372
 H      0.9273952610      1.1017733580     -1.5050528257
 H      2.1952687736      2.7536725009     -0.3211708402
 H      3.8844668526      2.3506254183      1.3613962519
 H      4.4957571442      0.1815031679      2.2538427438
 H      2.8489755700     -1.6392066191      2.4495293494
 H      4.5937484151     -1.7088969474      0.8292905854
 H      4.0924096167     -1.7356745171     -1.5459607374
 H      2.4253959381     -0.3722202885     -2.5772449863
 H      0.5007612103     -1.3526591760      1.9030584520
 H     -0.4871979568     -0.3679190093     -2.0561629819
 H     -2.6269079660      0.3104441918     -2.9311450699
 H     -3.6818597239      2.2081104043     -2.0119200127
 H     -3.9973839723      2.5569497104      0.3112441093
 H     -3.3207366009      1.1308010059      2.1337529849
 H     -1.0901224661      0.2015995564      2.1347936660
 H     -3.6283734453     -1.3025411952      1.9978777581
 H     -3.7205125028     -2.6272036118     -0.1154894604
 H     -3.0693242513     -1.9353871787     -2.2511272763
38
# ORCA AIMD Position Step 5, t=2.50 fs, E_Pot=-772.12402059 Hartree, Unit is Angstrom
 C      1.6478534020      0.6405150490     -0.7503523557
 C      2.4204001193      1.7531122131      0.0004548374
 C      3.3644078327      1.4693817512      0.9214364177
 C      3.7340776510      0.1157150893      1.4485904232
 C      2.6533565483     -0.9748078183      1.5807287806
 C      3.7666077435     -1.0929143453      0.5230300951
 C      3.5034577058     -1.0744319216     -0.9224897881
 C      2.5657178684     -0.3139776066     -1.5119464879
 C      1.2221327592     -0.8282962348      1.2448580560
 C      0.7232262411     -0.1532582807      0.2042312130
 C     -0.7495752320      0.0299352144     -0.0286502436
 C     -1.2155263672     -0.0694769326     -1.3336903028
 C     -2.5889552457      0.2181447162     -1.8433188597
 C     -3.3488420824      1.4174241442     -1.2829386030
 C     -3.5169767809      1.6115271125      0.0524090514
 C     -3.0303631559      0.6618811523      1.1032708025
 C     -1.5792527583      0.2672863164      1.1117748537
 C     -3.3832187470     -0.7779390997      0.9888878926
 C     -3.4354002042     -1.5274630125     -0.1449571764
 C     -3.0572266073     -1.1564533132     -1.4528537104
 H      0.9210277018      1.0870337597     -1.5037065998
 H      2.1872311752      2.7493696717     -0.3187910692
 H      3.8850450956      2.3510242280      1.3566008540
 H      4.4973893446      0.1860043260      2.2567829590
 H      2.8492987388     -1.6435482959      2.4384915129
 H      4.5960713910     -1.6884654136      0.8332008204
 H      4.0873012176     -1.7402030157     -1.5449867872
 H      2.4253995072     -0.3759319211     -2.5707747528
 H      0.4939475050     -1.3465446243      1.8995767980
 H     -0.4806580261     -0.3532746065     -2.0500416692
 H     -2.6351122607      0.3103302505     -2.9257121215
 H     -3.6759753390      2.2101571315     -2.0131777535
 H     -3.9852658119      2.5613017330      0.2951612633
 H     -3.3187805411      1.1424327160      2.1318607525
 H     -1.0885126225      0.1969421316      2.1352892427
 H     -3.6318022450     -1.3010756783      1.9966165538
 H     -3.7252422588     -2.6226929501     -0.1326817128
 H     -3.0765353158     -1.9372812869     -2.2506447304
38
# ORCA AIMD Position Step 6, t=3.00 fs, E_Pot=-772.11984652 Hartree, Unit is Angstrom
 C      1.6514849398      0.6390144503     -0.7493141394
 C      2.4206397662      1.7579291340      0.0078959116
 C      3.3689088324      1.4683390446      0.9212820885
 C      3.7396525088      0.1105069694      1.4514433561
 C      2.6511795629     -0.9737507714      1.5788679257
 C      3.7641694821     -1.0910122496      0.5214799586
 C      3.5053884684     -1.0777934371     -0.9244680205
 C      2.5700085849     -0.3178427030     -1.5119861235
 C      1.2183869570     -0.8283384630      1.2445395687
 C      0.7255384901     -0.1612811072      0.2023859643
 C     -0.7473482784      0.0272230145     -0.0316939495
 C     -1.2139437898     -0.0732677490     -1.3325323684
 C     -2.5839669916      0.2148359378     -1.8429623624
 C     -3.3524043292      1.4157931688     -1.2842700644
 C     -3.5156894631      1.6093609648      0.0533755464
 C     -3.0276622586      0.6590752187      1.1037108099
 C     -1.5766074827      0.2645884414      1.1121550354
 C     -3.3837048120     -0.7773442515      0.9855018357
 C     -3.4354180197     -1.5237684931     -0.1426118619
 C     -3.0546947243     -1.1589418845     -1.4540745577
 H      0.9175455130      1.0717744456     -1.5001666942
 H      2.1794455206      2.7462321295     -0.3161174218
 H      3.8849903760      2.3494778008      1.3514048065
 H      4.4974499379      0.1895249568      2.2578980048
 H      2.8489888421     -1.6468459620      2.4261683375
 H      4.5989004127     -1.6698636868      0.8370660566
 H      4.0824568006     -1.7449414995     -1.5438962310
 H      2.4253109764     -0.3798259676     -2.5655582123
 H      0.4886118760     -1.3398374028      1.8952817631
 H     -0.4733679217     -0.3392717075     -2.0454633343
 H     -2.6424131453      0.3099612737     -2.9204434237
 H     -3.6693525142      2.2099262957     -2.0123873761
 H     -3.9731564742      2.5651997303      0.2803016229
 H     -3.3155534892      1.1510816032      2.1256910190
 H     -1.0886404340      0.1924728642      2.1321666612
 H     -3.6340365231     -1.2973502578      1.9907746369
 H     -3.7290689734     -2.6148204675     -0.1484921192
 H     -3.0835393735     -1.9373953440     -2.2482362528
38
# ORCA AIMD Position Step 7, t=3.50 fs, E_Pot=-772.11693504 Hartree, Unit is Angstrom
 C      1.6550001203      0.6374870391     -0.7483263945
 C      2.4208853550      1.7623187581      0.0153323079
 C      3.3733750585      1.4673818841      0.9211456337
 C      3.7450918851      0.1056028825      1.4542230215
 C      2.6491198094     -0.9727929893      1.5770741600
 C      3.7616966796     -1.0890098612      0.5199777909
 C      3.5072103473     -1.0810316638     -0.9264263267
 C      2.5743469994     -0.3216804944     -1.5117610756
 C      1.2146412795     -0.8284487159      1.2442893425
 C      0.7278536145     -0.1691864769      0.2004309140
 C     -0.7452373115      0.0244828487     -0.0344695599
 C     -1.2124386483     -0.0769873035     -1.3312773971
 C     -2.5791794491      0.2115799753     -1.8425490836
 C     -3.3558819232      1.4141421075     -1.2853858793
 C     -3.5143083885      1.6071533453      0.0538249948
 C     -3.0250260647      0.6565703106      1.1044208448
 C     -1.5737065426      0.2618326874      1.1125598630
 C     -3.3842795351     -0.7768346707      0.9827612289
 C     -3.4354275881     -1.5204305449     -0.1408789753
 C     -3.0521688439     -1.1614681733     -1.4551536789
 H      0.9170250538      1.0562301377     -1.4945314396
 H      2.1719050363      2.7446648769     -0.3131692396
 H      3.8845233160      2.3461749256      1.3460072992
 H      4.4961740236      0.1919290428      2.2573760460
 H      2.8480595858     -1.6493015842      2.4128798659
 H      4.6024332886     -1.6535033851      0.8409083712
 H      4.0781157015     -1.7501462114     -1.5428722325
 H      2.4250769483     -0.3839449185     -2.5620322186
 H      0.4846263801     -1.3327294319      1.8904125694
 H     -0.4651723033     -0.3260443414     -2.0427005258
 H     -2.6486440992      0.3093170117     -2.9157050588
 H     -3.6620998745      2.2075218797     -2.0096650755
 H     -3.9611825004      2.5688114887      0.2669508257
 H     -3.3110563821      1.1565593846      2.1153622310
 H     -1.0904049080      0.1881751209      2.1256127277
 H     -3.6351071288     -1.2914518450      1.9804627796
 H     -3.7320637193     -2.6037779850     -0.1626225212
 H     -3.0902907595     -1.9359050013     -2.2440752730
38
# ORCA AIMD Position Step 8, t=4.00 fs, E_Pot=-772.11487636 Hartree, Unit is Angstrom
 C      1.6584159247      0.6359058246     -0.7473601615
 C      2.4211218539      1.7662278658      0.0227400249
 C      3.3777942328      1.4664837380      0.9210316235
 C      3.7503370182      0.1010549375      1.4568820431
 C      2.6471783448     -0.9719246915      1.5753250990
 C      3.7592021209     -1.0869124611      0.5185277420
 C      3.5089261999     -1.0841392135     -0.9283380080
 C      2.5787125480     -0.3254647811     -1.5112600785
 C      1.2109436298     -0.8286331939      1.2441180255
 C      0.7301557448     -0.1769352038      0.1983279106
 C     -0.7432420279      0.0217080101     -0.0369346435
 C     -1.2110069583     -0.0806303186     -1.3299491677
 C     -2.5746286422      0.2083881775     -1.8420618090
 C     -3.3592364389      1.4124241724     -1.2862546395
 C     -3.5128220439      1.6048959285      0.0537230210
 C     -3.0224481819      0.6543879302      1.1053654751
 C     -1.5705588453      0.2590183500      1.1129389987
 C     -3.3849378279     -0.7763789210      0.9806890734
 C     -3.4354208611     -1.5174518230     -0.1398386817
 C     -3.0496492440     -1.1639954931     -1.4560503775
 H      0.9193960271      1.0407101848     -1.4870410206
 H      2.1646297244      2.7449229860     -0.3099314912
 H      3.8839246396      2.3414222209      1.3406568978
 H      4.4939017889      0.1931073271      2.2555198178
 H      2.8465557559     -1.6511949898      2.3990439273
 H      4.6067337268     -1.6396925971      0.8447025144
 H      4.0744826344     -1.7560365224     -1.5420675364
 H      2.4246615125     -0.3883180594     -2.5604633257
 H      0.4817830099     -1.3254645123      1.8852790129
 H     -0.4560754759     -0.3136652626     -2.0418608084
 H     -2.6536521735      0.3083818091     -2.9118246429
 H     -3.6543783942      2.2031858068     -2.0052517138
 H     -3.9494542753      2.5722777075      0.2553668406
 H     -3.3053554368      1.1588005805      2.1012298652
 H     -1.0935897316      0.1840169361      2.1160557958
 H     -3.6351116330     -1.2836029335      1.9660630323
 H     -3.7343554265     -2.5899785030     -0.1747948547
 H     -3.0967501478     -1.9331057630     -2.2384628162
38
# ORCA AIMD Position Step 9, t=4.50 fs, E_Pot=-772.11291622 Hartree, Unit is Angstrom
 C      1.6617589318      0.6342400945     -0.7463767169
 C      2.4213318965      1.7696175536      0.0300882562
 C      3.3821481092      1.4656108448      0.9209416542
 C      3.7553207478      0.0969116929      1.4593647831
 C      2.6453543546     -0.9711305383      1.5735928905
 C      3.7567117303     -1.0847360327      0.5171385291
 C      3.5105445676     -1.0871137368     -0.9301775852
 C      2.5830784187     -0.3291673502     -1.5104912818
 C      1.2073493026     -0.8288933728      1.2440304851
 C      0.7324279001     -0.1844862290      0.1960422355
 C     -0.7413607154      0.0188925305     -0.0390508954
 C     -1.2096321282     -0.0841934477     -1.3285839869
 C     -2.5703504738      0.2052717759     -1.8414881887
 C     -3.3624248740      1.4105837194     -1.2868415984
 C     -3.5112219794      1.6025849347      0.0530466993
 C     -3.0199169588      0.6525381132      1.1064867942
 C     -1.5671879461      0.2561473408      1.1132245242
 C     -3.3856665431     -0.7759363484      0.9792755138
 C     -3.4353851868     -1.5148135185     -0.1395567903
 C     -3.0471361137     -1.1664770298     -1.4567184813
 H      0.9244381953      1.0255905240     -1.4780755551
 H      2.1576759269      2.7470842568     -0.3063451121
 H      3.8835230341      2.3356279165      1.3356413987
 H      4.4910657415      0.1929803157      2.2527352165
 H      2.8445497364     -1.6528686034      2.3851537244
 H      4.6117128822     -1.6286253889      0.8483691713
 H      4.0717119359     -1.7627729756     -1.5415874405
 H      2.4240553420     -0.3929589383     -2.5609151530
 H      0.4798009314     -1.3183292722      1.8802502412
 H     -0.4462430290     -0.3021586974     -2.0428864875
 H     -2.6572985173      0.3071421273     -2.9090617351
 H     -3.6463964627      2.1972942174     -1.9995097289
 H     -3.9380598497      2.5756909371      0.2457712546
 H     -3.2985884416      1.1578820678      2.0839051607
 H     -1.0978615951      0.1799499755      2.1041695014
 H     -3.6342246816     -1.2741795439      1.9482649139
 H     -3.7361337392     -2.5740619652     -0.1847637916
 H     -3.1028870782     -1.9294032272     -2.2318169674
38
# ORCA AIMD Position Step 10, t=5.00 fs, E_Pot=-772.11015972 Hartree, Unit is Angstrom
 C      1.6650663644      0.6324555663     -0.7453281496
 C      2.4214955616      1.7724663777      0.0373437533
 C      3.3864168515      1.4647244323      0.9208751761
 C      3.7599733290      0.0932152416      1.4616115214
 C      2.6436439860     -0.9703914226      1.5718469174
 C      3.7542623439     -1.0825050001      0.5158221777
 C      3.5120810998     -1.0899606202     -0.9319243380
 C      2.5874142395     -0.3327605417     -1.5094827253
 C      1.2039158885     -0.8292260586      1.2440262863
 C      0.7346540839     -0.1918025976      0.1935437076
 C     -0.7395892784      0.0160300243     -0.0407875207
 C     -1.2082857984     -0.0876757376     -1.3272279621
 C     -2.5663775801      0.2022409000     -1.8408220515
 C     -3.3654032659      1.4085576210     -1.2871123846
 C     -3.5095021501      1.6002207315      0.0517854410
 C     -3.0174136458      0.6510145778      1.1077040864
 C     -1.5636307559      0.2532235384      1.1133327519
 C     -3.3864442394     -0.7754572011      0.9784725626
 C     -3.4353035638     -1.5124727685     -0.1400790092
 C     -3.0446280022     -1.1688596000     -1.4571096203
 H      0.9317781829      1.0112975436     -1.4681491717
 H      2.1511324907      2.7510488253     -0.3023053707
 H      3.8836743631      2.3292686806      1.3312665251
 H      4.4881633556      0.1915008058      2.2495040883
 H      2.8421347101     -1.6547039174      2.3717342234
 H      4.6171432167     -1.6203821493      0.8517830860
 H      4.0698883088     -1.7704410396     -1.5414719204
 H      2.4232772769     -0.3978665358     -2.5632361237
 H      0.4783514531     -1.3116278620      1.8757272092
 H     -0.4359827023     -0.2915033647     -2.0455676368
 H     -2.6594623079      0.3055849296     -2.9075832958
 H     -3.6383927717      2.1903364077     -1.9929018066
 H     -3.9270583338      2.5790993832      0.2383396270
 H     -3.2909688790      1.1540476112      2.0642693303
 H     -1.1027764698      0.1759053992      2.0908614075
 H     -3.6327051511     -1.2637152425      1.9280747240
 H     -3.7376517262     -2.5568775462     -0.1923343713
 H     -3.1086875754     -1.9252917177     -2.2246507523
38
# ORCA AIMD Position Step 11, t=5.50 fs, E_Pot=-772.10591795 Hartree, Unit is Angstrom
 C      1.6683878949      0.6305143888     -0.7441568143
 C      2.4215917085      1.7747690717      0.0444731431
 C      3.3905812229      1.4637829374      0.9208316687
 C      3.7642260427      0.0899993486      1.4635611125
 C      2.6420420366     -0.9696864947      1.5700551939
 C      3.7518995000     -1.0802501948      0.5145935932
 C      3.5135596462     -1.0926950384     -0.9335619726
 C      2.5916875387     -0.3362188501     -1.5082798883
 C      1.2007006419     -0.8296265083      1.2441010590
 C      0.7368193284     -0.1988525464      0.1908058689
 C     -0.7379204192      0.0131123545     -0.0421202558
 C     -1.2069300782     -0.0910783841     -1.3259332990
 C     -2.5627392639      0.1993032525     -1.8400649266
 C     -3.3681269663      1.4062757752     -1.2870332602
 C     -3.5076585836      1.5978080151      0.0499409057
 C     -3.0149106566      0.6497943557      1.1089106094
 C     -1.5599345631      0.2502507974      1.1131655780
 C     -3.3872400777     -0.7748810341      0.9781908794
 C     -3.4351546704     -1.5103643075     -0.1414332890
 C     -3.0421213424     -1.1710875837     -1.4571756323
 H      0.9409021563      0.9982958621     -1.4578957273
 H      2.1451224161      2.7565503461     -0.2976632419
 H      3.8847398298      2.3228513699      1.3278387548
 H      4.4857238038      0.1886485116      2.2463497881
 H      2.8394127887     -1.6570864874      2.3593016699
 H      4.6226691600     -1.6149386210      0.8547775513
 H      4.0690245825     -1.7790416410     -1.5416922289
 H      2.4223769469     -0.4030256397     -2.5670854804
 H      0.4770814197     -1.3056646685      1.8721164522
 H     -0.4257016382     -0.2816578217     -2.0495841344
 H     -2.6600382439      0.3036940788     -2.9074447605
 H     -3.6306279610      2.1828933626     -1.9859732102
 H     -3.9164744897      2.5824796400      0.2331957325
 H     -3.2827919804      1.1477267781      2.0434942914
 H     -1.1077941740      0.1717951089      2.0772415869
 H     -3.6309061122     -1.2529175670      1.9068457581
 H     -3.7392182663     -2.5394540541     -0.1973666240
 H     -3.1141517116     -1.9213158334     -2.2175304912
38
# ORCA AIMD Position Step 12, t=6.00 fs, E_Pot=-772.10009120 Hartree, Unit is Angstrom
 C      1.6717845205      0.6283756555     -0.7427974997
 C      2.4215984339      1.7765348431      0.0514489707
 C      3.3946278901      1.4627461366      0.9208118459
 C      3.7680183697      0.0872883281      1.4651569047
 C      2.6405414046     -0.9689967046      1.5681883861
 C      3.7496721991     -1.0780049335      0.5134677919
 C      3.5150121753     -1.0953429295     -0.9350807893
 C      2.5958678073     -0.3395212966     -1.5069404412
 C      1.1977540735     -0.8300894925      1.2442484853
 C      0.7389118105     -0.2056152408      0.1878056299
 C     -0.7363431862      0.0101282330     -0.0430340244
 C     -1.2055208506     -0.0944054517     -1.3247530845
 C     -2.5594580958      0.1964626473     -1.8392253081
 C     -3.3705547802      1.4036639159     -1.2865753132
 C     -3.5056878143      1.5953541757      0.0475262446
 C     -3.0123701337      0.6488356352      1.1099754269
 C     -1.5561517019      0.2472314770      1.1126171054
 C     -3.3880151920     -0.7741376608      0.9783024191
 C     -3.4349142632     -1.5084038432     -0.1436286301
 C     -3.0396088995     -1.1731086541     -1.4568736960
 H      0.9511894794      0.9870620561     -1.4480327909
 H      2.1397874528      2.7631993785     -0.2922356880
 H      3.8870566092      2.3168568115      1.3256375799
 H      4.4842579555      0.1844222827      2.2437831583
 H      2.8364814776     -1.6603660412      2.3483047034
 H      4.6278583551     -1.6121921273      0.8571665419
 H      4.0690600967     -1.7884963290     -1.5421498048
 H      2.4214260999     -0.4084126051     -2.5719811977
 H      0.4756565599     -1.3007106578      1.8697908368
 H     -0.4158577279     -0.2725645867     -2.0545482987
 H     -2.6589377615      0.3014491656     -2.9085912129
 H     -3.6233594976      2.1755881651     -1.9793057738
 H     -3.9062948202      2.5857483915      0.2304102357
 H     -3.2744287969      1.1395357463      2.0230219187
 H     -1.1123191038      0.1675123600      2.0645399799
 H     -3.6292676084     -1.2426436261      1.8862256738
 H     -3.7411869777     -2.5229307108     -0.1997786672
 H     -3.1192963097     -1.9180214848     -2.2110249900
38
# ORCA AIMD Position Step 13, t=6.50 fs, E_Pot=-772.09344869 Hartree, Unit is Angstrom
 C      1.6753257543      0.6259963982     -0.7411805278
 C      2.4214943708      1.7777823686      0.0582529994
 C      3.3985526143      1.4615792949      0.9208197166
 C      3.7713023837      0.0850981540      1.4663510192
 C      2.6391342952     -0.9683083645      1.5662229976
 C      3.7476290209     -1.0758022732      0.5124583936
 C      3.5164775953     -1.0979401979     -0.9364771301
 C      2.5999287830     -0.3426522946     -1.5055282561
 C      1.1951162057     -0.8306116745      1.2444628368
 C      0.7409232751     -0.2120820606      0.1845222888