60
# ORCA AIMD Force Step 0, t=0.00 fs, E_Pot=-1207.45266672 Hartree, Unit is Hartree/Angstrom
 C      0.0000000000      0.0000000000      0.0000000000
 C      0.0000000000      0.0000000000      0.0000000000
 O      0.0000000000      0.0000000000      0.0000000000
 C      0.0000000000      0.0000000000      0.0000000000
 C      0.0000000000      0.0000000000      0.0000000000
 C      0.0000000000      0.0000000000      0.0000000000
 C      0.0000000000      0.0000000000      0.0000000000
 O      0.0000000000      0.0000000000      0.0000000000
 B      0.0000000000      0.0000000000      0.0000000000
 C      0.0000000000      0.0000000000      0.0000000000
 C      0.0000000000      0.0000000000      0.0000000000
 C      0.0000000000      0.0000000000      0.0000000000
 H      0.0000000000      0.0000000000      0.0000000000
 C      0.0000000000      0.0000000000      0.0000000000
 H      0.0000000000      0.0000000000      0.0000000000
 C      0.0000000000      0.0000000000      0.0000000000
 B      0.0000000000      0.0000000000      0.0000000000
 O      0.0000000000      0.0000000000      0.0000000000
 C      0.0000000000      0.0000000000      0.0000000000
 C      0.0000000000      0.0000000000      0.0000000000
 C      0.0000000000      0.0000000000      0.0000000000
 C      0.0000000000      0.0000000000      0.0000000000
 C      0.0000000000      0.0000000000      0.0000000000
 C      0.0000000000      0.0000000000      0.0000000000
 O      0.0000000000      0.0000000000      0.0000000000
 C      0.0000000000      0.0000000000      0.0000000000
 C      0.0000000000      0.0000000000      0.0000000000
 H      0.0000000000      0.0000000000      0.0000000000
 C      0.0000000000      0.0000000000      0.0000000000
 C      0.0000000000      0.0000000000      0.0000000000
 C      0.0000000000      0.0000000000      0.0000000000
 H      0.0000000000      0.0000000000      0.0000000000
 H      0.0000000000      0.0000000000      0.0000000000
 H      0.0000000000      0.0000000000      0.0000000000
 H      0.0000000000      0.0000000000      0.0000000000
 H      0.0000000000      0.0000000000      0.0000000000
 H      0.0000000000      0.0000000000      0.0000000000
 H      0.0000000000      0.0000000000      0.0000000000
 H      0.0000000000      0.0000000000      0.0000000000
 H      0.0000000000      0.0000000000      0.0000000000
 H      0.0000000000      0.0000000000      0.0000000000
 H      0.0000000000      0.0000000000      0.0000000000
 H      0.0000000000      0.0000000000      0.0000000000
 H      0.0000000000      0.0000000000      0.0000000000
 H      0.0000000000      0.0000000000      0.0000000000
 H      0.0000000000      0.0000000000      0.0000000000
 H      0.0000000000      0.0000000000      0.0000000000
 H      0.0000000000      0.0000000000      0.0000000000
 H      0.0000000000      0.0000000000      0.0000000000
 H      0.0000000000      0.0000000000      0.0000000000
 H      0.0000000000      0.0000000000      0.0000000000
 H      0.0000000000      0.0000000000      0.0000000000
 H      0.0000000000      0.0000000000      0.0000000000
 H      0.0000000000      0.0000000000      0.0000000000
 H      0.0000000000      0.0000000000      0.0000000000
 H      0.0000000000      0.0000000000      0.0000000000
 H      0.0000000000      0.0000000000      0.0000000000
 H      0.0000000000      0.0000000000      0.0000000000
 H      0.0000000000      0.0000000000      0.0000000000
 H      0.0000000000      0.0000000000      0.0000000000
60
# ORCA AIMD Force Step 1, t=0.50 fs, E_Pot=-1207.44911819 Hartree, Unit is Hartree/Angstrom
 C     -0.0092509070      0.0221478990      0.0140989513
 C      0.0001590754     -0.0120492077     -0.0087134107
 O      0.0090433761     -0.0080499749      0.0028319464
 C     -0.0277914332      0.0035866068     -0.0279827090
 C      0.0010161733     -0.0013233249      0.0064672081
 C     -0.0080900714     -0.0119596607      0.0032983381
 C     -0.0215947483      0.0213435651     -0.0068113358
 O     -0.0233879555      0.0077485875     -0.0140812834
 B      0.0172154848     -0.0135946191     -0.0052963642
 C      0.0143519910      0.0194260714      0.0245894917
 C     -0.0165988067     -0.0039878371     -0.0142168450
 C      0.0115478281      0.0079308176      0.0083599531
 H     -0.0349493692      0.0006404337     -0.0185059877
 C      0.0234795234      0.0078365370      0.0158668268
 H     -0.0083849516     -0.0094346807     -0.0345249140
 C     -0.0110101058     -0.0064723664     -0.0226010258
 B     -0.0075347488     -0.0026081173      0.0040705723
 O     -0.0174865925     -0.0115182402      0.0062227593
 C      0.0026267732     -0.0142027596     -0.0186234941
 C     -0.0024725517     -0.0073806245      0.0090915050
 C      0.0176680729     -0.0089549526      0.0038069207
 C      0.0118704764      0.0078171588     -0.0023513137
 C     -0.0022662737     -0.0040693519     -0.0105910366
 C     -0.0110232069     -0.0129716899     -0.0146021581
 O      0.0085359169      0.0113834348      0.0196061394
 C     -0.0022645457     -0.0020333334      0.0167694358
 C      0.0059186734      0.0027160569      0.0011161967
 H      0.0085087405      0.0066529301      0.0089316923
 C      0.0223669166      0.0266268933      0.0084047516
 C     -0.0255016888     -0.0208156974     -0.0252895611
 C      0.0135671589      0.0047342474      0.0105665892
 H     -0.0177376988     -0.0251782297     -0.0071139516
 H      0.0135103385     -0.0025338390      0.0062195231
 H      0.0051617847     -0.0104790018     -0.0045674825
 H     -0.0037001188     -0.0103415263      0.0036712121
 H      0.0321891479     -0.0058513818     -0.0015588077
 H      0.0063966313     -0.0029189705      0.0128016218
 H     -0.0007637304      0.0226461417      0.0118553977
 H     -0.0010322922      0.0119116282      0.0168401153
 H      0.0040255061      0.0104114677     -0.0193686097
 H     -0.0020270477      0.0043892549     -0.0034360411
 H     -0.0005438805      0.0097856347      0.0181691248
 H     -0.0060919702      0.0003961239     -0.0026841958
 H      0.0176028772     -0.0364984465      0.0026221794
 H     -0.0161426106      0.0088549889      0.0003651705
 H     -0.0062840601     -0.0030275992     -0.0055233700
 H      0.0087978045      0.0035036412     -0.0104139939
 H     -0.0009625679      0.0007498483     -0.0008344948
 H     -0.0335361452     -0.0065943953     -0.0085525182
 H     -0.0062376432      0.0224943395      0.0167015889
 H      0.0140364734      0.0124876768     -0.0195603178
 H      0.0059926802      0.0006688812     -0.0079704106
 H      0.0163012637      0.0054851457      0.0126197523
 H     -0.0098392704     -0.0151653031      0.0061625965
 H      0.0069631097      0.0002571897     -0.0114911570
 H     -0.0148150359      0.0199849177      0.0038211429
 H      0.0252503298      0.0033362944      0.0153943133
 H      0.0230805851      0.0109078562      0.0010280354
 H      0.0083977792     -0.0071115904      0.0248544703
 H     -0.0059999305     -0.0206171696      0.0092597558
60
# ORCA AIMD Force Step 2, t=1.00 fs, E_Pot=-1207.44033439 Hartree, Unit is Hartree/Angstrom
 C     -0.0176718322      0.0440934751      0.0361792135
 C     -0.0019359417     -0.0275391390     -0.0219792289
 O      0.0003459460     -0.0021860133      0.0037016413
 C     -0.0495760179      0.0123413087     -0.0616538105
 C      0.0060973301     -0.0052950312      0.0099722882
 C     -0.0190134882     -0.0170921577      0.0041790097
 C     -0.0465086483      0.0346853711     -0.0104106156
 O     -0.0308655758      0.0135779271     -0.0134390303
 B      0.0322927447     -0.0217651373     -0.0044002636
 C      0.0096813335      0.0293143402      0.0295169208
 C     -0.0186111870     -0.0005196435     -0.0097859382
 C      0.0182394626      0.0087875928      0.0100138868
 H     -0.0471097538      0.0017400730     -0.0236248177
 C      0.0368781307      0.0113772689      0.0276765963
 H     -0.0114822367     -0.0116594232     -0.0455096780
 C     -0.0148906467     -0.0043753570     -0.0165177427
 B     -0.0098943081     -0.0040188381      0.0004168940
 O     -0.0171489663     -0.0104028676      0.0145085223
 C      0.0056432938     -0.0283462796     -0.0311975434
 C     -0.0044232453     -0.0206436541      0.0143215839
 C      0.0294565386     -0.0123928949      0.0055419485
 C      0.0182487425      0.0146813507     -0.0026048680
 C     -0.0005421728     -0.0132492824     -0.0185100053
 C     -0.0177664309     -0.0188600130     -0.0292065643
 O      0.0077696383      0.0113976206      0.0229705771
 C     -0.0080027738     -0.0093363603      0.0078221280
 C      0.0134895487      0.0069771875      0.0065908927
 H      0.0045508304      0.0047150177      0.0043504271
 C      0.0296557094      0.0317061250      0.0085509244
 C     -0.0352257020     -0.0293154303     -0.0328284849
 C      0.0202293793      0.0097824665      0.0131951445
 H     -0.0214516186     -0.0319647655     -0.0060052454
 H      0.0071846773     -0.0028529522      0.0091595953
 H      0.0176682038     -0.0372277194     -0.0230755382
 H     -0.0002957849     -0.0030851307     -0.0000097960
 H      0.0422858313     -0.0068370958     -0.0036922425
 H      0.0167175126     -0.0098714262      0.0474295496
 H      0.0010644268      0.0274772488      0.0139055858
 H     -0.0044310569      0.0126226829      0.0172679871
 H     -0.0003664090      0.0107507421     -0.0224008969
 H      0.0158979461      0.0084400013     -0.0016720199
 H      0.0003670331      0.0112673881      0.0171635547
 H      0.0074292213      0.0026243046      0.0014628683
 H      0.0276683952     -0.0504984416      0.0020165291
 H     -0.0139478468      0.0058189281     -0.0015834057
 H      0.0049074284     -0.0015386482     -0.0011900448
 H      0.0045326418      0.0021436516     -0.0065497396
 H     -0.0078784582      0.0200139766     -0.0090441465
 H     -0.0459292610     -0.0079120851     -0.0096956788
 H     -0.0096123644      0.0290840738      0.0191418611
 H      0.0177950015      0.0162810511     -0.0223466256
 H      0.0022619446      0.0056100803      0.0013812672
 H      0.0175282692      0.0073024660      0.0113417866
 H     -0.0106968254     -0.0131244413      0.0064755141
 H      0.0074811061      0.0013857373     -0.0037005915
 H     -0.0182763111      0.0221973203      0.0057629355
 H      0.0323991220      0.0022173144      0.0188231974
 H      0.0252056735      0.0120125394      0.0032845966
 H      0.0088143314     -0.0078398399      0.0286018900
 H     -0.0059152617     -0.0215787486      0.0091354781
60
# ORCA AIMD Force Step 3, t=1.50 fs, E_Pot=-1207.42800078 Hartree, Unit is Hartree/Angstrom
 C     -0.0261452507      0.0650642327      0.0588626004
 C     -0.0035993571     -0.0432048750     -0.0347613681
 O     -0.0084835075      0.0040865313      0.0046119513
 C     -0.0676015406      0.0221542779     -0.0938262705
 C      0.0110466615     -0.0092959248      0.0129707460
 C     -0.0289798989     -0.0205724181      0.0044038159
 C     -0.0697602007      0.0443334568     -0.0126682343
 O     -0.0374515731      0.0188562246     -0.0127042951
 B      0.0463280315     -0.0288859660     -0.0029960349
 C      0.0044190743      0.0386389552      0.0337171226
 C     -0.0214867922      0.0036537838     -0.0050536078
 C      0.0215504950      0.0096861469      0.0099655498
 H     -0.0557163524      0.0029270795     -0.0267059893
 C      0.0493015553      0.0138073082      0.0358777880
 H     -0.0135987927     -0.0127746292     -0.0529166409
 C     -0.0184543367     -0.0022387164     -0.0100715510
 B     -0.0122345654     -0.0054280170     -0.0030674060
 O     -0.0166593628     -0.0091084566      0.0225911019
 C      0.0087217941     -0.0430226118     -0.0438518880
 C     -0.0058774024     -0.0334633485      0.0184699570
 C      0.0389109313     -0.0144030541      0.0062922905
 C      0.0245681433      0.0213122961     -0.0027343434
 C      0.0018152768     -0.0227919810     -0.0252456031
 C     -0.0229649453     -0.0227044727     -0.0424709600
 O      0.0069436752      0.0113727149      0.0261278442
 C     -0.0121921610     -0.0158881276     -0.0018756112
 C      0.0216393646      0.0117927833      0.0125644539
 H      0.0002108113      0.0024579709     -0.0006133547
 C      0.0368461973      0.0352317838      0.0098971909
 C     -0.0445977540     -0.0386418931     -0.0390312721
 C      0.0251143760      0.0126667403      0.0146833238
 H     -0.0235127164     -0.0365538586     -0.0039077080
 H      0.0001372060     -0.0029729591      0.0116444450
 H      0.0303551090     -0.0639449016     -0.0418635585
 H      0.0035734662      0.0049259823     -0.0038172725
 H      0.0489435721     -0.0070281792     -0.0059590599
 H      0.0263794261     -0.0170448682      0.0815701808
 H      0.0031548065      0.0304808371      0.0149273227
 H     -0.0077348638      0.0126678625      0.0165559772
 H     -0.0054398836      0.0101783887     -0.0239833943
 H      0.0334889023      0.0122868623      0.0004681537
 H      0.0013064699      0.0120318123      0.0149918303
 H      0.0209779132      0.0047504284      0.0058316057
 H      0.0360755010     -0.0600405845      0.0010187297
 H     -0.0104427872      0.0020947493     -0.0036023898
 H      0.0167378320      0.0002742835      0.0036588697
 H     -0.0005804841      0.0003157923     -0.0017050553
 H     -0.0151693530      0.0394378004     -0.0172576497
 H     -0.0552632771     -0.0082700732     -0.0098590935
 H     -0.0126546734      0.0340191622      0.0200931943
 H      0.0204507087      0.0193205481     -0.0237023953
 H     -0.0016707062      0.0103507931      0.0110893095
 H      0.0175021056      0.0086568264      0.0089673553
 H     -0.0107997405     -0.0099355659      0.0063358650
 H      0.0076540200      0.0024458646      0.0045301343
 H     -0.0205303721      0.0228691060      0.0075405772
 H      0.0371698183      0.0007180572      0.0206562851
 H      0.0255617667      0.0123175471      0.0055561878
 H      0.0085789261     -0.0079557630      0.0306843268
 H     -0.0054797949     -0.0209620693      0.0083433327
60
# ORCA AIMD Force Step 4, t=2.00 fs, E_Pot=-1207.41469576 Hartree, Unit is Hartree/Angstrom
 C     -0.0329729838      0.0814020990      0.0778347791
 C     -0.0047704305     -0.0593245074     -0.0476080347
 O     -0.0176062453      0.0110052501      0.0057581463
 C     -0.0808695111      0.0318910009     -0.1180586554
 C      0.0161109336     -0.0133317577      0.0160342451
 C     -0.0361097944     -0.0224561465      0.0044604972
 C     -0.0898373432      0.0507611738     -0.0131119291
 O     -0.0435267201      0.0237401816     -0.0120610013
 B      0.0598121518     -0.0355501539     -0.0013587764
 C     -0.0006686077      0.0476903010      0.0377632225
 C     -0.0246009503      0.0082004152     -0.0000165213
 C      0.0215196739      0.0102873349      0.0077665351
 H     -0.0607170770      0.0041658765     -0.0277736658
 C      0.0601332253      0.0150296200      0.0405711325
 H     -0.0146963512     -0.0128135535     -0.0566675727
 C     -0.0216249652      0.0000064962     -0.0033816280
 B     -0.0143508123     -0.0067478023     -0.0067982480
 O     -0.0159661461     -0.0077691713      0.0304617477
 C      0.0116593912     -0.0572921892     -0.0562760349
 C     -0.0071472881     -0.0431090270      0.0216446979
 C      0.0458627458     -0.0145443289      0.0060167683
 C      0.0306660400      0.0277342297     -0.0027866995
 C      0.0042449716     -0.0322575923     -0.0300005970
 C     -0.0268424758     -0.0245142677     -0.0536847874
 O      0.0060360984      0.0112500512      0.0290611782
 C     -0.0146527461     -0.0215560645     -0.0115735778
 C      0.0296429509      0.0168011945      0.0186200457
 H     -0.0042702907      0.0000934042     -0.0056841922
 C      0.0438537275      0.0372011061      0.0124808255
 C     -0.0531015453     -0.0484320311     -0.0434635318
 C      0.0281505613      0.0134382827      0.0148801642
 H     -0.0239122862     -0.0388687886     -0.0009300619
 H     -0.0066652624     -0.0030197685      0.0137282478
 H      0.0410308369     -0.0857121290     -0.0571151379
 H      0.0073725921      0.0125573689     -0.0074092550
 H      0.0522686058     -0.0065099716     -0.0082123265
 H      0.0341479316     -0.0232165047      0.1088337532
 H      0.0054808138      0.0315876734      0.0148643727
 H     -0.0108352952      0.0121381308      0.0148569448
 H     -0.0109246239      0.0088517340     -0.0242741836
 H      0.0484811784      0.0158793189      0.0024334366
 H      0.0022784890      0.0120144940      0.0116559376
 H      0.0330809693      0.0066122156      0.0098615148
 H      0.0427490783     -0.0653244104     -0.0003146308
 H     -0.0064486135     -0.0018436999     -0.0056054920
 H      0.0275269600      0.0021109255      0.0081064148
 H     -0.0057441470     -0.0016009441      0.0032735579
 H     -0.0215734637      0.0558285422     -0.0240220085
 H     -0.0610303516     -0.0076478010     -0.0089450648
 H     -0.0152291680      0.0367885721      0.0191598531
 H      0.0216780044      0.0213285471     -0.0232138397
 H     -0.0052463470      0.0146579119      0.0200440444
 H      0.0163663090      0.0095659727      0.0057068671
 H     -0.0102535307     -0.0058764112      0.0058279077
 H      0.0076873907      0.0034107312      0.0125548976
 H     -0.0214914470      0.0218903129      0.0090804100
 H      0.0394995416     -0.0010847296      0.0209190599
 H      0.0239930863      0.0117368757      0.0077513781
 H      0.0075557039     -0.0073596401      0.0306971715
 H     -0.0047545553     -0.0189062867      0.0069078913
60
# ORCA AIMD Force Step 5, t=2.50 fs, E_Pot=-1207.40328790 Hartree, Unit is Hartree/Angstrom
 C     -0.0360971568      0.0891122857      0.0891817291
 C     -0.0054090278     -0.0755657179     -0.0601324597
 O     -0.0268653774      0.0183865188      0.0071121726
 C     -0.0882881496      0.0403246866     -0.1279492009
 C      0.0211411751     -0.0174548948      0.0189315971
 C     -0.0387162019     -0.0228024150      0.0049501755
 C     -0.1049755754      0.0543976545     -0.0112818836
 O     -0.0489790776      0.0282012515     -0.0114381766
 B      0.0724488792     -0.0415026948      0.0005976707
 C     -0.0057663387      0.0562662056      0.0413717258
 C     -0.0277722969      0.0129161762      0.0052212069
 C      0.0181843471      0.0108152830      0.0037050990
 H     -0.0621618689      0.0054240573     -0.0269207941
 C      0.0694379829      0.0150895021      0.0417174363
 H     -0.0147469199     -0.0118298590     -0.0567796936
 C     -0.0243629150      0.0023493268      0.0033919089
 B     -0.0162812100     -0.0079584591     -0.0105465555
 O     -0.0151127978     -0.0064006584      0.0380440268
 C      0.0144859845     -0.0712701241     -0.0684585148
 C     -0.0085610922     -0.0471690307      0.0234416680
 C      0.0503481760     -0.0126916508      0.0048107364
 C      0.0365898186      0.0338299519     -0.0027087137
 C      0.0063499581     -0.0413003766     -0.0319946304
 C     -0.0296092034     -0.0242422951     -0.0621063093
 O      0.0050469135      0.0110580394      0.0317548962
 C     -0.0153890114     -0.0263612343     -0.0212168905
 C      0.0371696713      0.0217771907      0.0242809251
 H     -0.0084196169     -0.0021048423     -0.0103958872
 C      0.0506449836      0.0376264679      0.0163033962
 C     -0.0607905419     -0.0586258722     -0.0462576755
 C      0.0292985254      0.0119560950      0.0138813067
 H     -0.0226181196     -0.0388501728      0.0028513275
 H     -0.0128901979     -0.0030528740      0.0154329867
 H      0.0475487396     -0.0979960505     -0.0652173775
 H      0.0108291768      0.0192764820     -0.0106358039
 H      0.0523187805     -0.0053078031     -0.0103331673
 H      0.0389232850     -0.0270157239      0.1227952468
 H      0.0079936315      0.0306720470      0.0135997727
 H     -0.0136494194      0.0110486894      0.0122078751
 H     -0.0166454129      0.0068022993     -0.0232889802
 H      0.0590049518      0.0191453652      0.0036506627
 H      0.0032583353      0.0112715468      0.0073426372
 H      0.0421097884      0.0080885829      0.0128323412
 H      0.0476173454     -0.0666794251     -0.0019194251
 H     -0.0021333389     -0.0058477132     -0.0075360668
 H      0.0363855035      0.0037888361      0.0116737531
 H     -0.0107535240     -0.0034967741      0.0082036065
 H     -0.0260592805      0.0668695002     -0.0282565806
 H     -0.0633963582     -0.0061839814     -0.0070762144
 H     -0.0173170622      0.0374719347      0.0164545870
 H      0.0215281657      0.0223153323     -0.0210176247
 H     -0.0080322587      0.0183929164      0.0273351879
 H      0.0141237378      0.0100059197      0.0016376792
 H     -0.0091171402     -0.0010970084      0.0049753957
 H      0.0078080316      0.0042343223      0.0196853602
 H     -0.0211223508      0.0192539338      0.0102946085
 H      0.0393448626     -0.0031214593      0.0196376335
 H      0.0205454433      0.0103133147      0.0098019634
 H      0.0058399098     -0.0061036551      0.0287483585
 H     -0.0037729759     -0.0155352176      0.0049004969
60
# ORCA AIMD Force Step 6, t=3.00 fs, E_Pot=-1207.39579221 Hartree, Unit is Hartree/Angstrom
 C     -0.0341039187      0.0858547180      0.0899829188
 C     -0.0055490679     -0.0915911634     -0.0721106769
 O     -0.0361181486      0.0260644195      0.0086450743
 C     -0.0893772580      0.0464127497     -0.1196261768
 C      0.0260831446     -0.0216732554      0.0216524167
 C     -0.0355894358     -0.0217905689      0.0064231802
 C     -0.1136299262      0.0554316001     -0.0068215574
 O     -0.0537889388      0.0322186358     -0.0108446173
 B      0.0841058185     -0.0466870856      0.0028599784
 C     -0.0107732930      0.0642544572      0.0445157117
 C     -0.0305866910      0.0175055113      0.0105265070
 C      0.0115953208      0.0112188450     -0.0021799600
 H     -0.0599844585      0.0066719676     -0.0241713274
 C      0.0770072979      0.0139870653      0.0393319490
 H     -0.0137056825     -0.0098559322     -0.0531970119
 C     -0.0266550567      0.0047088699      0.0100268016
 B     -0.0179883898     -0.0090342252     -0.0142515575
 O     -0.0141076616     -0.0050330125      0.0452371601
 C      0.0171464504     -0.0847034481     -0.0801859068
 C     -0.0104073927     -0.0437810171      0.0238582549
 C      0.0522900596     -0.0087281165      0.0027353366
 C      0.0422726337      0.0395169130     -0.0024851714
 C      0.0077342404     -0.0495168852     -0.0306227927
 C     -0.0314558495     -0.0219591444     -0.0669994739
 O      0.0039866343      0.0107869607      0.0341838061
 C     -0.0144709541     -0.0302670467     -0.0305150584
 C      0.0437089379      0.0263933465      0.0290708336
 H     -0.0117778537     -0.0038506888     -0.0142978295
 C      0.0571137756      0.0365659103      0.0212599965
 C     -0.0675520687     -0.0689309404     -0.0475029237
 C      0.0285195979      0.0082536964      0.0117347829
 H     -0.0196201853     -0.0364566075      0.0073398416
 H     -0.0180400613     -0.0031535029      0.0168292955
 H      0.0483338215     -0.0977475362     -0.0636335842
 H      0.0135794816      0.0243960753     -0.0133063005
 H      0.0491499615     -0.0034562144     -0.0121931201
 H      0.0402054837     -0.0274121027      0.1195143206
 H      0.0106309280      0.0277242741      0.0110894864
 H     -0.0160924255      0.0094893012      0.0087553369
 H     -0.0223625397      0.0041474785     -0.0211600172
 H      0.0635706412      0.0220366582      0.0035716141
 H      0.0042262205      0.0098903659      0.0023001498
 H      0.0466660074      0.0090761254      0.0140829371
 H      0.0505790447     -0.0642633591     -0.0037565511
 H      0.0020519364     -0.0096188622     -0.0093231154
 H      0.0422781099      0.0050621415      0.0137751466
 H     -0.0152043113     -0.0051634619      0.0126792804
 H     -0.0276557113      0.0705996888     -0.0290600328
 H     -0.0623131775     -0.0039622542     -0.0042961247
 H     -0.0188710528      0.0360235440      0.0119793418
 H      0.0199857545      0.0222395328     -0.0171587670
 H     -0.0095979747      0.0214469928      0.0320578244
 H      0.0108973932      0.0099958761     -0.0030511124
 H     -0.0075367223      0.0041024063      0.0038637284
 H      0.0082571004      0.0048891251      0.0252268084
 H     -0.0194385917      0.0150056216      0.0110998937
 H      0.0366835640     -0.0053112724      0.0168609920
 H      0.0153565127      0.0081350104      0.0116312362
 H      0.0035104811     -0.0042382206      0.0249197865
 H     -0.0025980842     -0.0110864651      0.0024362842
60
# ORCA AIMD Force Step 7, t=3.50 fs, E_Pot=-1207.39242289 Hartree, Unit is Hartree/Angstrom
 C     -0.0269403238      0.0724379489      0.0799249153
 C     -0.0052253984     -0.1070620579     -0.0833222248
 O     -0.0451962250      0.0338352851      0.0103169506
 C     -0.0844564466      0.0499135650     -0.0940377912
 C      0.0308450475     -0.0259608642      0.0241747732
 C     -0.0264522245     -0.0196890944      0.0092486865
 C     -0.1148369597      0.0537740084      0.0003285348
 O     -0.0579571883      0.0357955291     -0.0102759355
 B      0.0946576395     -0.0510728740      0.0053847631
 C     -0.0156450000      0.0715432601      0.0471205111
 C     -0.0326014997      0.0216831832      0.0158056063
 C      0.0016993296      0.0115479886     -0.0098318973
 H     -0.0540820405      0.0078747438     -0.0195320854
 C      0.0827069916      0.0117148716      0.0333371443
 H     -0.0115349856     -0.0069233600     -0.0458416032
 C     -0.0284720917      0.0070396953      0.0163361156
 B     -0.0194430744     -0.0099423898     -0.0178090259
 O     -0.0129842335     -0.0037080294      0.0519382460
 C      0.0196036565     -0.0973575205     -0.0912757005
 C     -0.0127944364     -0.0324581722      0.0233781162
 C      0.0515652130     -0.0026833089     -0.0001355441
 C      0.0476710897      0.0446820289     -0.0021071684
 C      0.0081302605     -0.0565559642     -0.0256522220
 C     -0.0325102310     -0.0178444200     -0.0678124070
 O      0.0028606843      0.0104424229      0.0363286770
 C     -0.0120712017     -0.0333034734     -0.0392127258
 C      0.0487962882      0.0303424931      0.0325369082
 H     -0.0139090179     -0.0048732045     -0.0169779512
 C      0.0631292140      0.0341189676      0.0271472318
 C     -0.0732619119     -0.0789576275     -0.0473374060
 C      0.0258551476      0.0023672249      0.0085559999
 H     -0.0149750617     -0.0317296732      0.0124066226
 H     -0.0216453930     -0.0034066171      0.0180263474
 H      0.0432094908     -0.0851127882     -0.0523680522
 H      0.0152530899      0.0272773938     -0.0152594511
 H      0.0428154273     -0.0009967773     -0.0136471462
 H      0.0383251070     -0.0242249083      0.0997345579
 H      0.0133251637      0.0228274575      0.0073803729
 H     -0.0180981156      0.0075850173      0.0046940691
 H     -0.0278130505      0.0010527846     -0.0180905386
 H      0.0616183942      0.0244913995      0.0018563384
 H      0.0051699500      0.0080067070     -0.0031411019
 H      0.0459821603      0.0095164510      0.0131826901
 H      0.0514771723     -0.0580603346     -0.0057948312
 H      0.0056520299     -0.0128764504     -0.0109077945
 H      0.0444545199      0.0057044697      0.0139654051
 H     -0.0186802195     -0.0063676014      0.0162773264
 H     -0.0258735972      0.0663820326     -0.0261497963
 H     -0.0577232853     -0.0010575183     -0.0006459078
 H     -0.0198716646      0.0324978582      0.0058158496
 H      0.0170947156      0.0211141369     -0.0117767530
 H     -0.0096741374      0.0237814497      0.0336022133
 H      0.0068791033      0.0095861909     -0.0081147233
 H     -0.0056969428      0.0093765826      0.0026053578
 H      0.0092407118      0.0053771956      0.0286095964
 H     -0.0165205081      0.0092905518      0.0114432353
 H      0.0315306530     -0.0075716065      0.0126661827
 H      0.0086531296      0.0053238826      0.0131732377
 H      0.0006779860     -0.0018526321      0.0194049570
 H     -0.0013132775     -0.0059043066     -0.0003282332
60
# ORCA AIMD Force Step 8, t=4.00 fs, E_Pot=-1207.39152642 Hartree, Unit is Hartree/Angstrom
 C     -0.0159351928      0.0526291410      0.0613873850
 C     -0.0044347645     -0.1218721161     -0.0937580956
 O     -0.0540147623      0.0415692322      0.0121603901
 C     -0.0744562122      0.0514251465     -0.0565000097
 C      0.0353485486     -0.0303355446      0.0264317858
 C     -0.0120308054     -0.0168095170      0.0135444887
 C     -0.1084664117      0.0489907891      0.0098470978
 O     -0.0615205396      0.0389883414     -0.0096805213
 B      0.1040572408     -0.0546234242      0.0081395835
 C     -0.0203905085      0.0781311847      0.0490932702
 C     -0.0334539241      0.0251617311      0.0210050808
 C     -0.0116577590      0.0119797278     -0.0192035671
 H     -0.0443438323      0.0089960340     -0.0130000394
 C      0.0864963199      0.0082336553      0.0236240660
 H     -0.0082167835     -0.0030642018     -0.0346439578
 C     -0.0298199421      0.0094331215      0.0222139996
 B     -0.0206518626     -0.0106354358     -0.0211407299
 O     -0.0117908056     -0.0025124769      0.0581449714
 C      0.0218184720     -0.1090192600     -0.1016317099
 C     -0.0156300918     -0.0143596060      0.0228993207
 C      0.0479554899      0.0053437506     -0.0037525598
 C      0.0528228898      0.0492441056     -0.0016090498
 C      0.0074453203     -0.0621406707     -0.0173187499
 C     -0.0328139380     -0.0121983637     -0.0643105946
 O      0.0016651075      0.0100638977      0.0381903599
 C     -0.0084442296     -0.0356751136     -0.0471321575
 C      0.0521011624      0.0333856123      0.0343101375
 H     -0.0144694997     -0.0049522637     -0.0181342548
 C      0.0685982039      0.0304107924      0.0336828909
 C     -0.0778003588     -0.0882244578     -0.0459291131
 C      0.0214888155     -0.0056014786      0.0044599834