60
# ORCA AIMD Position Step 0, t=0.00 fs, E_Pot=-1207.45266672 Hartree, Unit is Angstrom
 C      0.3968550018     -1.9566400088     -5.7506810258
 C      0.7500420034     -2.1981710098     -4.2853570192
 O      0.3617950016     -1.0298160046     -3.5147840157
 C     -0.0576910003     -3.3759900151     -3.7283930167
 C      2.3029160103     -2.3083070103     -3.9790930178
 C      2.8342360127     -3.7336920167     -3.8533400173
 C      3.1622770142     -1.5012130067     -4.9605130222
 O      2.4134130108     -1.6687710075     -2.6793920120
 B      1.3070160059     -0.8568850038     -2.5198030113
 C      1.1263530050      0.1749450008     -1.3783850062
 C      2.1688510097      0.4367000020     -0.5327020024
 C      2.2486250101      1.4862690067      0.4872320022
 H      3.1987550143      1.5139560068      1.0423300047
 C      1.0427420047      1.9990940090      1.2860660058
 H      1.3097480059      2.3059650103      2.3083800103
 C     -0.3017270014      1.3762080062      1.1940570053
 B     -1.1028490049      1.2099900054      2.5193860113
 O     -0.6380020029      1.6839400075      3.7331060167
 C     -1.5138370068      1.1676320052      4.7724770214
 C     -1.6833720075      2.2408040100      5.8451220262
 C     -0.8269600037     -0.0691890003      5.3638880240
 C     -2.8333500127      0.8197810037      3.9640940178
 C     -3.8072900171      2.0007160090      3.8716520173
 C     -3.5654670160     -0.4318480019      4.4427660199
 O     -2.3269990104      0.5779000026      2.6228010117
 C     -0.8400230038      0.9245720041      0.0260090001
 C     -0.1721300008      0.9826110044     -1.3316370060
 H     -0.8646170039      0.5463980024     -2.0745840093
 C      0.1619530007      2.3983430107     -1.7625290079
 C      0.9816130044      3.2201010144     -1.0629700048
 C      1.6425670074      2.9010590130      0.2141000010
 H      2.2656390101      3.7156920166      0.6136140027
 H     -0.7031440031     -1.8855190084     -5.8610010262
 H      0.7526990034     -2.7903150125     -6.3887130286
 H      0.8345250037     -1.0131570045     -6.1247940274
 H     -1.1354430051     -3.1297120140     -3.7924100170
 H      0.1858500008     -3.5557470159     -2.6632300119
 H      0.1235020006     -4.3092410193     -4.2959420192
 H      2.6844510120     -4.3025760193     -4.7925610215
 H      2.3385790105     -4.2737140191     -3.0260530136
 H      3.9199960176     -3.7059730166     -3.6354660163
 H      3.1951970143     -1.9755090088     -5.9612570267
 H      4.1964000188     -1.4411680065     -4.5690540205
 H      2.7805730125     -0.4677660021     -5.0740480227
 H      3.0846140138     -0.1652120007     -0.6648860030
 H     -0.7141750032      2.4204310108      6.3506550284
 H     -2.4161220108      1.9209350086      6.6127220296
 H     -2.0213560091      3.1988840143      5.4102360242
 H      0.1793950008      0.2184090010      5.7258370256
 H     -0.7004400031     -0.8628200039      4.6018930206
 H     -1.3977630063     -0.4863270022      6.2164640278
 H     -4.2969100192      2.2074450099      4.8435770217
 H     -4.5935310206      1.7602400079      3.1299730140
 H     -3.2913170147      2.9208080131      3.5346940158
 H     -3.8900270174     -0.3231250014      5.4973650246
 H     -2.9287450131     -1.3313120060      4.3586780195
 H     -4.4682490200     -0.5963580027      3.8223060171
 H     -1.8427300083      0.4660510021      0.0726340003
 H     -0.2378010011      2.7423980123     -2.7302120122
 H      1.2208910055      4.2077970188     -1.4903240067
60
# ORCA AIMD Position Step 1, t=0.50 fs, E_Pot=-1207.44911819 Hartree, Unit is Angstrom
 C      0.4009753951     -1.9561403552     -5.7486703032
 C      0.7495590284     -2.1893949814     -4.2768592691
 O      0.3659648450     -1.0292737674     -3.5144144477
 C     -0.0518209134     -3.3802581086     -3.7247630832
 C      2.2994740212     -2.3044413540     -3.9810940772
 C      2.8311299748     -3.7296522045     -3.8548723508
 C      3.1644794331     -1.5031916157     -4.9619751832
 O      2.4167855411     -1.6702763910     -2.6797563342
 B      1.3025626321     -0.8545034707     -2.5196542424
 C      1.1282023101      0.1682242855     -1.3800278184
 C      2.1714261283      0.4359850460     -0.5362887266
 C      2.2500448646      1.4841131653      0.4884551641
 H      3.2168449307      1.5074217647      1.0453522067
 C      1.0382608176      1.9992653594      1.2842119483
 H      1.3109846132      2.3042245040      2.3205433921
 C     -0.2989515343      1.3744035481      1.1937431365
 B     -1.1014099086      1.2094253631      2.5200034759
 O     -0.6385582030      1.6870700371      3.7283695609
 C     -1.5144158577      1.1752042521      4.7773122617
 C     -1.6810243753      2.2406898969      5.8438350250
 C     -0.8315107156     -0.0719301362      5.3621170708
 C     -2.8361298126      0.8196521295      3.9644808493
 C     -3.8058375655      2.0042316088      3.8710213655
 C     -3.5627106943     -0.4286345906      4.4460135493
 O     -2.3261215759      0.5764205474      2.6215231124
 C     -0.8387065333      0.9328227052      0.0276425791
 C     -0.1731868566      0.9816938388     -1.3319010917
 H     -0.8653899455      0.5447690353     -2.0676513534
 C      0.1582135381      2.4003799678     -1.7622381359
 C      0.9839399323      3.2259732947     -1.0603764932
 C      1.6395513930      2.9023006855      0.2150594666
 H      2.2684700919      3.7285986467      0.6049979024
 H     -0.6916235738     -1.8746186188     -5.8801974268
 H      0.7501332522     -2.7664270952     -6.3752331802
 H      0.8422903619     -1.0168078243     -6.1105279148
 H     -1.1440238772     -3.1338776820     -3.7775538589
 H      0.1764243921     -3.5609676906     -2.6845469770
 H      0.1145937912     -4.3163061388     -4.3026211593
 H      2.7030031298     -4.3070834912     -4.7932839262
 H      2.3488702934     -4.2721840798     -3.0180419690
 H      3.9003947403     -3.7096840564     -3.6233868469
 H      3.1916964318     -1.9831345188     -5.9609421167
 H      4.1845107493     -1.4438193869     -4.5668137151
 H      2.7576280192     -0.4569118302     -5.0710768770
 H      3.0905977554     -0.1579528202     -0.6620164978
 H     -0.7244016119      2.4241800044      6.3512158720
 H     -2.4083191067      1.9148555694      6.6084941648
 H     -2.0220095687      3.1813387200      5.4163330069
 H      0.1946855218      0.2070228738      5.7212831337
 H     -0.6956295807     -0.8749127722      4.5987338676
 H     -1.4078100205     -0.5006483244      6.2140251858
 H     -4.2936164081      2.1954240948      4.8375144969
 H     -4.5977958859      1.7552686321      3.1353172009
 H     -3.2853974165      2.9196181281      3.5302032575
 H     -3.8951725799     -0.3300281578      5.4929080720
 H     -2.9225316999     -1.3295904311      4.3447538540
 H     -4.4774449135     -0.5836105980      3.8223423967
 H     -1.8467872212      0.4758024134      0.0641092458
 H     -0.2347964762      2.7431508501     -2.7389493780
 H      1.2214375032      4.2167325239     -1.4861810671
60
# ORCA AIMD Position Step 2, t=1.00 fs, E_Pot=-1207.44033439 Hartree, Unit is Angstrom
 C      0.4050476612     -1.9555193362     -5.7465813185
 C      0.7490766368     -2.1806796179     -4.2684041139
 O      0.3701742720     -1.0287642445     -3.5140330389
 C     -0.0460992670     -3.3845091256     -3.7212839632
 C      2.2960355471     -2.3005806405     -3.9830609701
 C      2.8279778726     -3.7256753746     -3.8563875623
 C      3.1665651116     -1.5050547247     -4.9634754443
 O      2.4200640902     -1.6717508678     -2.6801786594
 B      1.2982111813     -0.8522030961     -2.5195375541
 C      1.1301311650      0.1616057781     -1.3815371881
 C      2.1739120372      0.4352478672     -0.5399552915
 C      2.2515286857      1.4819993994      0.4897247498
 H      3.2326691088      1.5009253654      1.0471707955
 C      1.0339053233      1.9994796490      1.2824435266
 H      1.3116757920      2.3018684298      2.3304651707
 C     -0.2962346082      1.3725626401      1.1933055353
 B     -1.1000157233      1.2088445451      2.5206460299
 O     -0.6391864945      1.6901546529      3.7236558352
 C     -1.5149806926      1.1827033485      4.7820485640
 C     -1.6786888678      2.2405353706      5.8425969590
 C     -0.8359675436     -0.0747218479      5.3603658782
 C     -2.8388463711      0.8195659108      3.9648550568
 C     -3.8043966415      2.0077270474      3.8703324450
 C     -3.5600129965     -0.4254901835      4.4491831819
 O     -2.3252085915      0.5749869311      2.6203249157
 C     -0.8374016616      0.9410671808      0.0293687948
 C     -0.1742119849      0.9807909767     -1.3321592324
 H     -0.8656091207      0.5435724475     -2.0601328150
 C      0.1545941260      2.4025636854     -1.7619011477
 C      0.9861288366      3.2317352681     -1.0579196877
 C      1.6366081551      2.9035689733      0.2160772621
 H      2.2701474904      3.7398729188      0.5959133222
 H     -0.6792163090     -1.8638768132     -5.8990000896
 H      0.7479021980     -2.7432075803     -6.3620428503
 H      0.8498193115     -1.0211344124     -6.0960142198
 H     -1.1505131652     -3.1384269537     -3.7627904310
 H      0.1674098478     -3.5663815889     -2.7050427300
 H      0.1056305562     -4.3219003684     -4.3085320456
 H      2.7214990028     -4.3108177596     -4.7929103633
 H      2.3594298803     -4.2699750734     -3.0112877688
 H      3.8806498130     -3.7131113973     -3.6115243287
 H      3.1881583486     -1.9901271516     -5.9594435576
 H      4.1722176278     -1.4464465368     -4.5647469195
 H      2.7358160073     -0.4484285852     -5.0679331724
 H      3.0955335795     -0.1501125600     -0.6591215063
 H     -0.7350435993      2.4277340142      6.3514172781
 H     -2.3999385252      1.9090007402      6.6035854696
 H     -2.0227262135      3.1638318697      5.4223792473
 H      0.2078006972      0.1952004669      5.7161694669
 H     -0.6912226020     -0.8855475178      4.5966607155
 H     -1.4169487105     -0.5141647378      6.2103108194
 H     -4.2899305063      2.1834396239      4.8309292193
 H     -4.6010014811      1.7506515901      3.1414865540
 H     -3.2801151999      2.9174397321      3.5261112441
 H     -3.8998676433     -0.3369186529      5.4876999911
 H     -2.9172796952     -1.3265661002      4.3310703301
 H     -4.4850015536     -0.5706383263      3.8233815204
 H     -1.8493434638      0.4862700969      0.0556464013
 H     -0.2312431738      2.7434409141     -2.7460730033
 H      1.2215935138      4.2243304064     -1.4814325298
60
# ORCA AIMD Position Step 3, t=1.50 fs, E_Pot=-1207.42800078 Hartree, Unit is Angstrom
 C      0.4090324291     -1.9546556836     -5.7442896882
 C      0.7485825659     -2.1720952652     -4.2600501384
 O      0.3743946127     -1.0282625509     -3.5136355665
 C     -0.0406359453     -3.3887022106     -3.7181343022
 C      2.2926226769     -2.2967401894     -3.9849777407
 C      2.8247146401     -3.7217830866     -3.8578833278
 C      3.1684010472     -1.5067322734     -4.9650360446
 O      2.4232232608     -1.6731729021     -2.6806571342
 B      1.2940462177     -0.8500298393     -2.5194473508
 C      1.1321173358      0.1551327222     -1.3828884761
 C      2.1763017313      0.4345061830     -0.5436836634
 C      2.2531156402      1.4799289431      0.4910519841
 H      3.2454578863      1.4945277512      1.0474533828
 C      1.0297417652      1.9997566663      1.2808225340
 H      1.3116200021      2.2987469640      2.3374425468
 C     -0.2935930209      1.3706936433      1.1927765795
 B     -1.0986785393      1.2082379877      2.5212925672
 O     -0.6398866377      1.6932034979      3.7189910692
 C     -1.5155159271      1.1900642755      4.7866248672
 C     -1.6763722928      2.2402675555      5.8414344536
 C     -0.8402732672     -0.0775876562      5.3586410562
 C     -2.8414692180      0.8195598185      3.9652158571
 C     -3.8029554342      2.0111578826      3.8695407036
 C     -3.5574064142     -0.4224418674      4.4522001750
 O     -2.3242616366      0.5735968943      2.6192183624
 C     -0.8361376299      0.9492791702      0.0311416977
 C     -0.1751656243      0.9799242504     -1.3323818967
 H     -0.8655321214      0.5426805333     -2.0523137168
 C      0.1511287964      2.4049257902     -1.7615166180
 C      0.9881299592      3.2373498523     -1.0556369446
 C      1.6337689537      2.9048936405      0.2171695428
 H      2.2704302399      3.7490888318      0.5864167728
 H     -0.6663126946     -1.8532967672     -5.9172480407
 H      0.7468179033     -2.7223625784     -6.3503270694
 H      0.8573459577     -1.0256718774     -6.0814684330
 H     -1.1542604727     -3.1434321953     -3.7482344068
 H      0.1594647896     -3.5724512150     -2.7224927699
 H      0.0967164979     -4.3257159709     -4.3135497562
 H      2.7397477260     -4.3137375763     -4.7914102571
 H      2.3699893944     -4.2670602442     -3.0059786521
 H      3.8618967458     -3.7159962635     -3.5997440578
 H      3.1846362134     -1.9964010325     -5.9568227264
 H      4.1603810948     -1.4489085327     -4.5625800986
 H      2.7157585098     -0.4432182044     -5.0646509207
 H      3.0995712741     -0.1418752826     -0.6563232084
 H     -0.7453896704      2.4311957344      6.3515415595
 H     -2.3912435613      1.9032724522      6.5982387267
 H     -2.0239580713      3.1475902509      5.4278495346
 H      0.2179513191      0.1828356097      5.7104122064
 H     -0.6874323153     -0.8943102546      4.5958307467
 H     -1.4249479528     -0.5266502704      6.2051312993
 H     -4.2860888361      2.1717938476      4.8244191359
 H     -4.6030716369      1.7465001839      3.1484091913
 H     -3.2755183976      2.9144008408      3.5224321417
 H     -3.9040856012     -0.3437343509      5.4822389235
 H     -2.9132072799     -1.3220879050      4.3177316338
 H     -4.4904631351     -0.5574922534      3.8256500724
 H     -1.8502623123      0.4975444844      0.0473785948
 H     -0.2271072516      2.7432205528     -2.7513481352
 H      1.2213642601      4.2305387038     -1.4760777417
60
# ORCA AIMD Position Step 4, t=2.00 fs, E_Pot=-1207.41469576 Hartree, Unit is Angstrom
 C      0.4128934707     -1.9534313721     -5.7416643840
 C      0.7480663592     -2.1637055836     -4.2518457067
 O      0.3786007182     -1.0277415957     -3.5132171815
 C     -0.0355162179     -3.3927944520     -3.7154832218
 C      2.2892536195     -2.2929318677     -3.9868328363
 C      2.8212766808     -3.7179844487     -3.8593622887
 C      3.1698638105     -1.5081751663     -4.9666736811
 O      2.4262438676     -1.6745243470     -2.6811901989
 B      1.2901428595     -0.8480217692     -2.5193749423
 C      1.1341374353      0.1488396574     -1.3840616695
 C      2.1785854126      0.4337808851     -0.5474579664
 C      2.2548284183      1.4779014162      0.4924403068
 H      3.2546723143      1.4882898949      1.0459940941
 C      1.0258279122      2.0001106780      1.2793901525
 H      1.3106762650      2.2947763456      2.3409998862
 C     -0.2910396014      1.3688032354      1.1921898614
 B     -1.0974092802      1.2075954226      2.5219235981
 O     -0.6406587213      1.6962298042      3.7143963829
 C     -1.5160060017      1.1972255422      4.7909833393
 C     -1.6740765777      2.2398151122      5.8403674403
 C     -0.8443869028     -0.0805463921      5.3569422629
 C     -2.8439703128      0.8196704485      3.9655634440
 C     -3.8014972293      2.0144806503      3.8686067881
 C     -3.5549128808     -0.4195030115      4.4549992706
 O     -2.3232814904      0.5722468266      2.6182138480
 C     -0.8349342027      0.9574443115      0.0329130024
 C     -0.1760053870      0.9791178850     -1.3325368207
 H     -0.8654409844      0.5419447005     -2.0444963891
 C      0.1478483568      2.4074924605     -1.7610759879
 C      0.9898965618      3.2427802280     -1.0535568493
 C      1.6310534377      2.9062941811      0.2183476067
 H      2.2691795582      3.7559637597      0.5766186678
 H     -0.6533369734     -1.8428590051     -5.9348251953
 H      0.7477097607     -2.7055896252     -6.3412866349
 H      0.8651427009     -1.0299100006     -6.0671006349
 H     -1.1548312813     -3.1489207036     -3.7339961284
 H      0.1532027904     -3.5796631660     -2.7347036393
 H      0.0879647470     -4.3275605814     -4.3176176283
 H      2.7575808581     -4.3158447758     -4.7888221023
 H      2.3802454934     -4.2634667456     -3.0022090915
 H      3.8452379207     -3.7180932115     -3.5878755749
 H      3.1811821218     -2.0019202298     -5.9532104627
 H      4.1498559868     -1.4510724889     -4.5600220096
 H      2.6979577133     -0.4419015303     -5.0612861070
 H      3.1029470663     -0.1334609552     -0.6537463651
 H     -0.7546937974      2.4346923004      6.3519052852
 H     -2.3825439358      1.8975367436      6.5927545177
 H     -2.0261861519      3.1338434853      5.4322200841
 H      0.2245442553      0.1698704017      5.7039832081
 H     -0.6844495247     -0.9008952432      4.5963083185
 H     -1.4316514040     -0.5379357402      6.1983792341
 H     -4.2823374216      2.1607667346      4.8186010572
 H     -4.6040094574      1.7428935434      3.1559510608
 H     -3.2716040618      2.9106985236      3.5191486132
 H     -3.9078245784     -0.3504237488      5.4770468382
 H     -2.9104550737     -1.3160949907      4.3048198762
 H     -4.4935251504     -0.5442349715      3.8292780854
 H     -1.8495170890      0.5096780885      0.0394330109
 H     -0.2223910906      2.7424797931     -2.7546461351
 H      1.2207761857      4.2354090657     -1.4701521281
60
# ORCA AIMD Position Step 5, t=2.50 fs, E_Pot=-1207.40328790 Hartree, Unit is Angstrom
 C      0.4166052650     -1.9517503441     -5.7385904420
 C      0.7475197403     -2.1555725853     -4.2438351876
 O      0.3827688096     -1.0271710302     -3.5127716430
 C     -0.0307982277     -3.3967452804     -3.7134581999
 C      2.2859453208     -2.2891654504     -3.9886151708
 C      2.8176123690     -3.7142778621     -3.8608289098
 C      3.1708456206     -1.5093513620     -4.9683967034
 O      2.4291099549     -1.6757890853     -2.6817773222
 B      1.2865721370     -0.8462139652     -2.5193102239
 C      1.1361704422      0.1427566405     -1.3850372752
 C      2.1807528424      0.4330946329     -0.5512633306
 C      2.2566733337      1.4759137009      0.4938826380
 H      3.2599924409      1.4822732337      1.0427068841
 C      1.0222119071      2.0005500652      1.2781686396
 H      1.3087638811      2.2899353474      2.3408812761
 C     -0.2885838902      1.3668973513      1.1915797733
 B     -1.0962171007      1.2069064446      2.5225183591
 O     -0.6415029119      1.6992489387      3.7098894794
 C     -1.5164361202      1.2041311976      4.7950687771
 C     -1.6718012434      2.2391224082      5.8394104404
 C     -0.8482826350     -0.0836092140      5.3552625453
 C     -2.8463236599      0.8199341698      3.9658985919
 C     -3.8000037658      2.0176536793      3.8675005896
 C     -3.5525461767     -0.4166745552      4.4575267550
 O     -2.3222684361      0.5709320246      2.6173208066
 C     -0.8338013032      0.9655581703      0.0346353351
 C     -0.1766893835      0.9783970945     -1.3325908440
 H     -0.8656283072      0.5412089368     -2.0369865693
 C      0.1447816336      2.4102843221     -1.7605632574
 C      0.9913862813      3.2479894068     -1.0516981789
 C      1.6284701071      2.9077799527      0.2196169879
 H      2.2663551383      3.7603537127      0.5666793521
 H     -0.6406905783     -1.8325330385     -5.9516489770
 H      0.7512916873     -2.6942832216     -6.3359064212
 H      0.8734854691     -1.0333618521     -6.0530993851
 H     -1.1519892551     -3.1548798951     -3.7201779690
 H      0.1491221281     -3.5884522783     -2.7398987452
 H      0.0794995388     -4.3273550068     -4.3207469911
 H      2.7748518698     -4.3171756294     -4.7852413069
 H      2.3898714569     -4.2592650004     -2.9999957369
 H      3.8316122819     -3.7191691166     -3.5757505964
 H      3.1778486635     -2.0066991626     -5.9488064490
 H      4.1414074723     -1.4528218702     -4.5567981469
 H      2.6828059461     -0.4448452084     -5.0579142547
 H      3.1059289243     -0.1250981310     -0.6515148854
 H     -0.7622744541      2.4383555782      6.3528020236
 H     -2.3741484983      1.8916492941      6.5874393449
 H     -2.0298430696      3.1236341995      5.4350558471
 H      0.2272008960      0.1562987640      5.6969165937
 H     -0.6824379989     -0.9051288900      4.5980425525
 H     -1.4369924716     -0.5479192735      6.1900539555
 H     -4.2788982503      2.1506075268      4.8140457928
 H     -4.6038848824      1.7398827674      3.1639279526
 H     -3.2683280209      2.9065816045      3.5162191920
 H     -3.9110916056     -0.3569450310      5.4726330351
 H     -2.9090854759     -1.3086216295      4.2923958809
 H     -4.4940296624     -0.5309398290      3.8343036356
 H     -1.8471969922      0.5226786578      0.0319290429
 H     -0.2171422101      2.7412517540     -2.7559641002
 H      1.2198724150      4.2390832276     -1.4637262272
60
# ORCA AIMD Position Step 6, t=3.00 fs, E_Pot=-1207.39579221 Hartree, Unit is Angstrom
 C      0.4201610207     -1.9495603787     -5.7349912883
 C      0.7469371570     -2.1477620992     -4.2360637576
 O      0.3868736105     -1.0265180920     -3.5122916764
 C     -0.0265116355     -3.4005195630     -3.7121132772
 C      2.2827154669     -2.2854519913     -3.9903137937
 C      2.8136934662     -3.7106543061     -3.8622850585
 C      3.1712616910     -1.5102420102     -4.9702013893
 O      2.4318066549     -1.6769518950     -2.6824183383
 B      1.2834030879     -0.8446389740     -2.5192411173
 C      1.1381949533      0.1369134560     -1.3857966347
 C      2.1827923662      0.4324715377     -0.5550834169
 C      2.2586392392      1.4739627470      0.4953617888
 H      3.2613024059      1.4765431362      1.0376191770
 C      1.0189362734      2.0010773970      1.2771624671
 H      1.3058639301      2.2842644006      2.3370429191
 C     -0.2862340580      1.3649826336      1.1909813661
 B     -1.0951107412      1.2061610068      2.5230555028
 O     -0.6424190899      1.7022761110      3.7054881241
 C     -1.5167915317      1.2107239457      4.7988245827
 C     -1.6695470000      2.2381625615      5.8385713560
 C     -0.8519461042     -0.0867767342      5.3535901025
 C     -2.8485027614      0.8203868281      3.9662226767
 C     -3.7984583635      2.0206359259      3.8662059287
 C     -3.5503152005     -0.4139470623      4.4597417431
 O     -2.3212229997      0.5696478468      2.6165485969
 C     -0.8327400553      0.9736197245      0.0362607117
 C     -0.1771769011      0.9777877668     -1.3325120366
 H     -0.8663691519      0.5403269363     -2.0300718724
 C      0.1419582632      2.4133148312     -1.7599550739
 C      0.9925588954      3.2529358146     -1.0500725322
 C      1.6260183254      2.9093483865      0.2209771433
 H      2.2620172757      3.7622495296      0.5568133612
 H     -0.6287440477     -1.8222891839     -5.9676540339
 H      0.7580283582     -2.6892653908     -6.3347357829
 H      0.8826326068     -1.0355907078     -6.0396349055
 H     -1.1456885457     -3.1612546763     -3.7068788496
 H      0.1475439188     -3.5991108786     -2.7371114991
 H      0.0714612338     -4.3251384330     -4.3230214355
 H      2.7914260620     -4.3177981099     -4.7808201858
 H      2.3985171723     -4.2545698456     -2.9992822797
 H      3.8216953018     -3.7190035039     -3.5632482021
 H      3.1746905540     -2.0107944690     -5.9438713321
 H      4.1356202534     -1.4540615054     -4.5526971357
 H      2.6705996726     -0.4521891807     -5.0546296305
 H      3.1088050957     -0.1170228460     -0.6497514680
 H     -0.7675587859      2.4423087760      6.3544734851
 H     -2.3663615003      1.8854656742      6.5826007667
 H     -2.0352482838      3.1176875858      5.4360734955
 H      0.2257361415      0.1421673026      5.6893059445
 H     -0.6815375837     -0.9069568756      4.6008741528
 H     -1.4409846401     -0.5565553261      6.1802572850
 H     -4.2759458568      2.1415369236      4.8112286839
 H     -4.6028339494      1.7374929083      3.1721031057
 H     -3.2656116659      2.9023458723      3.5135821764
 H     -3.9138845752     -0.3632634205      5.4694580290
 H     -2.9090835138     -1.2998020972      4.2805043073
 H     -4.4919633109     -0.5176974130      3.8406725562
 H     -1.8435049422      0.5365029572      0.0249813697
 H     -0.2114509976      2.7396099867     -2.7554144278
 H      1.2187112476      4.2417819385     -1.4569060853
60
# ORCA AIMD Position Step 7, t=3.50 fs, E_Pot=-1207.39242289 Hartree, Unit is Angstrom
 C      0.4235769842     -1.9468686206     -5.7308486741
 C      0.7463162083     -2.1403504394     -4.2285845065
 O      0.3908844538     -1.0257487192     -3.5117695473
 C     -0.0226590930     -3.4040892754     -3.7114083912
 C      2.2795856627     -2.2818078152     -3.9919161448
 C      2.8095260497     -3.7071018879     -3.8637254577
 C      3.1710582186     -1.5108396801     -4.9720678809
 O      2.4343174719     -1.6779972775     -2.6831127677
 B      1.2807055284     -0.8433281834     -2.5191535988
 C      1.1401874283      0.1313451678     -1.3863213040
 C      2.1846910516      0.4319363680     -0.5588969788
 C      2.2606953822      1.4720472698      0.4968488439
 H      3.2586977363      1.4711733357      1.0308784890
 C      1.0160402349      2.0016887728      1.2763591461
 H      1.3020264988      2.2778710669      2.3296656207
 C     -0.2839992599      1.3630680653      1.1904300720
 B     -1.0940994579      1.2053503173      2.5235127557
 O     -0.6434058597      1.7053232174      3.7012144003
 C     -1.5170573923      1.2169393796      4.8021897652
 C     -1.6673196894      2.2369489399      5.8378522414
 C     -0.8553711783     -0.0900348819      5.3519102106
 C     -2.8504786114      0.8210629795      3.9665374488
 C     -3.7968496222      2.0233858703      3.8647253795
 C     -3.5482272690     -0.4113036883      4.4616179266
 O     -2.3201470346      0.5683909466      2.6159071854
 C     -0.8317441440      0.9816232069      0.0377400730
 C     -0.1774305101      0.9773154464     -1.3322722346
 H     -0.8678920547      0.5391806408     -2.0240014475
 C      0.1394111268      2.4165872755     -1.7592217465
 C      0.9933756429      3.2575695347     -1.0486863567
 C      1.6236904642      2.9109833269      0.2224201549
 H      2.2563348672      3.7617809513      0.5472958136
 H     -0.6178194216     -1.8121142559     -5.9827711528
 H      0.7680241540     -2.6905878595     -6.3377208705
 H      0.8927929887     -1.0362502714     -6.0268615912
 H     -1.1360810742     -3.1679417815     -3.6942001460
 H      0.1485801331     -3.6117098470     -2.7264520475
 H      0.0640117039     -4.3210745886     -4.3245995089
 H      2.8071682772     -4.3178068968     -4.7757656395
 H      2.4058132225     -4.2495396454     -2.9999463612
 H      3.8158122659     -3.7173910595     -3.5503434905
 H      3.1717670099     -2.0142965064     -5.9387190429
 H      4.1328143558     -1.4547228344     -4.5476177569
 H      2.6615448891     -0.4638447016     -5.0515470808
 H      3.1118544711     -0.1094694932     -0.6485755022
 H     -0.7701426783      2.4466469987      6.3570704550
 H     -2.3594664642      1.8788603840      6.5785282851
 H     -2.0425391672      3.1162891118      5.4351998150
 H      0.2201667688      0.1275860014      5.6813112865
 H     -0.6818621402     -0.9064479428      4.6045291445
 H     -1.4437203532     -0.5638496473      6.1692039943
 H     -4.2735829391      2.1337502519      4.8104752168
 H     -4.6010545052      1.7357261765      3.1801882163
 H     -3.2633528373      2.8983220926      3.5111629730
 H     -3.9161738249     -0.3693463002      5.4678940459
 H     -2.9103558142     -1.2898802376      4.2691804178
 H     -4.4874643870     -0.5046250389      3.8482324666
 H     -1.8387565372      0.5510465077      0.0187027175
 H     -0.2054530989      2.7376682997     -2.7532237549
 H      1.2173641439      4.2437901837     -1.4498344896
60
# ORCA AIMD Position Step 8, t=4.00 fs, E_Pot=-1207.39152642 Hartree, Unit is Angstrom
 C      0.4268920314     -1.9437409693     -5.7262088675
 C      0.7456579031     -2.1334252184     -4.2214601260
 O      0.3947641591     -1.0248289128     -3.5111975648
 C     -0.0192179087     -3.4074337883     -3.7112111955
 C      2.2765822257     -2.2782560039     -3.9934076706
 C      2.8051553383     -3.7036085945     -3.8651349209
 C      3.1702200204     -1.5111497314     -4.9739584242
 O      2.4366236528     -1.6789092712     -2.6838592683
 B      1.2785493311     -0.8423114914     -2.5190319453
 C      1.1421214193      0.1260934102     -1.3865939550
 C      2.1864366482      0.4315130986     -0.5626764034
 C      2.2627893631      1.4701687990      0.4983024001
 H      3.2525109454      1.4662454677      1.0227637378
 C      1.0135591799      2.0023730817      1.2757281377
 H      1.2973795790      2.2709352075      2.3191803847
 C     -0.2818901713      1.3611657084      1.1899610318
 B     -1.0931930384      1.2044676083      2.5238674594
 O     -0.6444599389      1.7083972223      3.6970960239
 C     -1.5172190644      1.2227052021      4.8050993132
 C     -1.6651319235      2.2355398984      5.8372518053
 C     -0.8585599605     -0.0933529351      5.3502062986
 C     -2.8522195190      0.8219943680      3.9668449870
 C     -3.7951738545      2.0258627069      3.8630831628
 C     -3.5462893023     -0.4087218830      4.4631469565
 O     -2.3190443449      0.5671597705      2.6154069619
 C     -0.8308008584      0.9895543172      0.0390241565
 C     -0.1774191243      0.9770035462     -1.3318500714
 H     -0.8703480389      0.5376989391     -2.0189601246
 C      0.1371760784      2.4200928026     -1.7583288775
 C      0.9938005721      3.2618329776     -1.0475414571
 C      1.6214726230      2.9126539447      0.2239302395
 H      2.2495918511      3.7592254394      0.5384598780