38
# ORCA AIMD Force Step 0, t=0.00 fs, E_Pot=-772.15624094 Hartree, Unit is Hartree/Angstrom
 C      0.0000000000      0.0000000000      0.0000000000
 C      0.0000000000      0.0000000000      0.0000000000
 C      0.0000000000      0.0000000000      0.0000000000
 C      0.0000000000      0.0000000000      0.0000000000
 C      0.0000000000      0.0000000000      0.0000000000
 C      0.0000000000      0.0000000000      0.0000000000
 C      0.0000000000      0.0000000000      0.0000000000
 C      0.0000000000      0.0000000000      0.0000000000
 C      0.0000000000      0.0000000000      0.0000000000
 C      0.0000000000      0.0000000000      0.0000000000
 C      0.0000000000      0.0000000000      0.0000000000
 C      0.0000000000      0.0000000000      0.0000000000
 C      0.0000000000      0.0000000000      0.0000000000
 C      0.0000000000      0.0000000000      0.0000000000
 C      0.0000000000      0.0000000000      0.0000000000
 C      0.0000000000      0.0000000000      0.0000000000
 C      0.0000000000      0.0000000000      0.0000000000
 C      0.0000000000      0.0000000000      0.0000000000
 C      0.0000000000      0.0000000000      0.0000000000
 C      0.0000000000      0.0000000000      0.0000000000
 H      0.0000000000      0.0000000000      0.0000000000
 H      0.0000000000      0.0000000000      0.0000000000
 H      0.0000000000      0.0000000000      0.0000000000
 H      0.0000000000      0.0000000000      0.0000000000
 H      0.0000000000      0.0000000000      0.0000000000
 H      0.0000000000      0.0000000000      0.0000000000
 H      0.0000000000      0.0000000000      0.0000000000
 H      0.0000000000      0.0000000000      0.0000000000
 H      0.0000000000      0.0000000000      0.0000000000
 H      0.0000000000      0.0000000000      0.0000000000
 H      0.0000000000      0.0000000000      0.0000000000
 H      0.0000000000      0.0000000000      0.0000000000
 H      0.0000000000      0.0000000000      0.0000000000
 H      0.0000000000      0.0000000000      0.0000000000
 H      0.0000000000      0.0000000000      0.0000000000
 H      0.0000000000      0.0000000000      0.0000000000
 H      0.0000000000      0.0000000000      0.0000000000
 H      0.0000000000      0.0000000000      0.0000000000
38
# ORCA AIMD Force Step 1, t=0.50 fs, E_Pot=-772.15302940 Hartree, Unit is Hartree/Angstrom
 C     -0.0143722187      0.0038979976     -0.0090575812
 C      0.0138943919     -0.0126255691      0.0118035525
 C     -0.0138821620      0.0144695620     -0.0119341763
 C     -0.0004957994      0.0044628619      0.0032462469
 C      0.0142217532     -0.0075488290      0.0088287972
 C      0.0012610989      0.0026878959      0.0100305961
 C     -0.0169233404      0.0137984182     -0.0135949115
 C      0.0165752603     -0.0127624360      0.0120393336
 C     -0.0187998954      0.0062388589     -0.0127311723
 C      0.0107068662     -0.0079276590      0.0174295563
 C     -0.0218017076      0.0037910106      0.0255356077
 C     -0.0118619471     -0.0157268626      0.0024949940
 C     -0.0065408100      0.0058319198     -0.0053313606
 C     -0.0044799157      0.0126845865      0.0242567105
 C      0.0036831718      0.0013444507     -0.0416913430
 C     -0.0023156656      0.0070766524      0.0260883403
 C      0.0313026564     -0.0002272417     -0.0057178538
 C     -0.0124751228     -0.0221391721      0.0188351958
 C      0.0050069153     -0.0120159092     -0.0032773517
 C      0.0226074128     -0.0051313266      0.0015753000
 H      0.0204052519     -0.0104433133      0.0193001783
 H      0.0041072262     -0.0144728217      0.0061428169
 H     -0.0133412387     -0.0232201859     -0.0103575962
 H     -0.0218324749     -0.0042611891     -0.0218881344
 H     -0.0063550053      0.0158631813     -0.0225545378
 H     -0.0127148970      0.0053364744     -0.0050958077
 H     -0.0097785101      0.0112732122      0.0110450820
 H      0.0021946506      0.0003813947      0.0148913528
 H      0.0169335287      0.0110745227     -0.0157677838
 H     -0.0168529174     -0.0025633157      0.0079353110
 H      0.0009476572      0.0010365555      0.0153027059
 H      0.0081413108     -0.0200847222      0.0225662122
 H      0.0076837941     -0.0168176641      0.0013241438
 H      0.0108452370     -0.0200662324     -0.0367398720
 H     -0.0115965797      0.0097839578     -0.0325707249
 H      0.0024734812      0.0182385450     -0.0375280463
 H      0.0111095055      0.0338920194      0.0014403910
 H      0.0117372368      0.0248015106      0.0238745868
38
# ORCA AIMD Force Step 2, t=1.00 fs, E_Pot=-772.14772880 Hartree, Unit is Hartree/Angstrom
 C     -0.0207912571      0.0051505491     -0.0131725397
 C      0.0108034084     -0.0282156039      0.0062514840
 C     -0.0123232981      0.0187696011     -0.0075053999
 C     -0.0039937055      0.0173094736      0.0020309726
 C      0.0175480657     -0.0128880325      0.0140262665
 C      0.0004896259      0.0063655121      0.0106830187
 C     -0.0185114610      0.0166291913     -0.0110513488
 C      0.0140508484     -0.0083660594      0.0199809578
 C     -0.0169584420      0.0007557247     -0.0058702738
 C      0.0081392400      0.0004984591      0.0112673876
 C     -0.0246101873      0.0042957259      0.0357235505
 C     -0.0164188674     -0.0123886024      0.0042712898
 C     -0.0155162021      0.0114322631     -0.0032735106
 C     -0.0010584289      0.0138062924      0.0260384752
 C      0.0061338227      0.0009644095     -0.0559701310
 C     -0.0072679965      0.0200566254      0.0392783144
 C      0.0404712822     -0.0011347674      0.0002312243
 C     -0.0183986941     -0.0251661004      0.0498526432
 C      0.0041186156     -0.0314974837     -0.0250003529
 C      0.0220080296     -0.0077107592      0.0012837267
 H      0.0290174777     -0.0112945120      0.0256192053
 H      0.0045448158     -0.0064493528      0.0059891299
 H     -0.0141764153     -0.0277734332     -0.0105944340
 H     -0.0252066431     -0.0074066753     -0.0263154799
 H     -0.0079263013      0.0180261957     -0.0242442734
 H     -0.0078195232     -0.0040611967     -0.0042840082
 H     -0.0067935222      0.0086313730      0.0094347546
 H      0.0014501301     -0.0002867659      0.0064458459
 H      0.0207278388      0.0117763074     -0.0168858842
 H     -0.0121043811     -0.0069631093      0.0002935350
 H      0.0043439085      0.0000665633      0.0111229754
 H      0.0100057390     -0.0265258990      0.0280861942
 H      0.0054618322     -0.0152297349      0.0071641432
 H      0.0149349277     -0.0301238878     -0.0499325555
 H     -0.0168531643      0.0102632744     -0.0435379883
 H      0.0060376803      0.0256299866     -0.0525153332
 H      0.0131233392      0.0437701483      0.0064304037
 H      0.0127210347      0.0292324362      0.0288197508
38
# ORCA AIMD Force Step 3, t=1.50 fs, E_Pot=-772.14143589 Hartree, Unit is Hartree/Angstrom
 C     -0.0256461586      0.0049841087     -0.0154838394
 C      0.0080126891     -0.0441770836      0.0010275708
 C     -0.0116677256      0.0212087416     -0.0037892996
 C     -0.0092575955      0.0299840419     -0.0007753924
 C      0.0203329707     -0.0168417424      0.0172625053
 C     -0.0008574747      0.0099254153      0.0108774439
 C     -0.0202261052      0.0198146726     -0.0074516126
 C      0.0112819722     -0.0036217933      0.0283596213
 C     -0.0134626277     -0.0039583189      0.0002013619
 C      0.0052468838      0.0091541455      0.0046867991
 C     -0.0269435831      0.0046232122      0.0453873589
 C     -0.0215238896     -0.0091658077      0.0063983976
 C     -0.0243856303      0.0168434094     -0.0003776532
 C      0.0033695553      0.0130265688      0.0286434456
 C      0.0086816808     -0.0000818426     -0.0688343092
 C     -0.0108378649      0.0311744272      0.0479312730
 C      0.0475097863     -0.0017734823      0.0033069768
 C     -0.0232177588     -0.0253344148      0.0763782450
 C      0.0038984979     -0.0481790202     -0.0470208343
 C      0.0216073680     -0.0082427978      0.0029319529
 H      0.0359027860     -0.0108358691      0.0299838715
 H      0.0046780463      0.0021974075      0.0054732349
 H     -0.0138885129     -0.0304249601     -0.0099160827
 H     -0.0267768841     -0.0103953935     -0.0289019697
 H     -0.0090666220      0.0188856023     -0.0240890621
 H     -0.0024079835     -0.0135383069     -0.0032488410
 H     -0.0032347091      0.0052957517      0.0071465098
 H      0.0005438395     -0.0009989998     -0.0027614613
 H      0.0231197271      0.0114786658     -0.0167353190
 H     -0.0067759537     -0.0112603576     -0.0076598653
 H      0.0076073728     -0.0008131310      0.0061298088
 H      0.0108803859     -0.0310164980      0.0317507165
 H      0.0030070560     -0.0129471931      0.0128891587
 H      0.0177856544     -0.0383249518     -0.0587173169
 H     -0.0204687214      0.0105999773     -0.0511005962
 H      0.0085689175      0.0306147554     -0.0629274889
 H      0.0143909921      0.0504455000      0.0116129649
 H      0.0136132819      0.0316284114      0.0316072842
38
# ORCA AIMD Force Step 4, t=2.00 fs, E_Pot=-772.13517675 Hartree, Unit is Hartree/Angstrom
 C     -0.0287572225      0.0034645082     -0.0159341719
 C      0.0054684145     -0.0596790373     -0.0039408559
 C     -0.0119909923      0.0217462186     -0.0008873547
 C     -0.0162285756      0.0422236149     -0.0051990871
 C      0.0225274284     -0.0193068365      0.0185167740
 C     -0.0021501877      0.0128759092      0.0108838803
 C     -0.0219189815      0.0231858821     -0.0030561903
 C      0.0082275423      0.0013587057      0.0362940696
 C     -0.0083652904     -0.0077394316      0.0052707746
 C      0.0021079656      0.0178450193     -0.0020968936
 C     -0.0287267472      0.0047468558      0.0543580864
 C     -0.0266538999     -0.0062649599      0.0082791572
 C     -0.0329871064      0.0219567901      0.0030309637
 C      0.0087018810      0.0102965529      0.0319848207
 C      0.0111943783     -0.0015621867     -0.0800149001
 C     -0.0130900240      0.0403151570      0.0523998225
 C      0.0523006521     -0.0021085727      0.0035551167
 C     -0.0269034774     -0.0231292640      0.0981216657
 C      0.0043892111     -0.0615614522     -0.0685504038
 C      0.0214651840     -0.0066557987      0.0065174998
 H      0.0408469996     -0.0091273654      0.0322804862
 H      0.0046235779      0.0107105165      0.0047873026
 H     -0.0124694198     -0.0310863026     -0.0083266431
 H     -0.0265118375     -0.0131355339     -0.0295804151
 H     -0.0097223685      0.0183554672     -0.0220713558
 H      0.0028905505     -0.0225294794     -0.0022011023
 H      0.0006888691      0.0014645037      0.0043750147
 H     -0.0004346306     -0.0017040288     -0.0118591931
 H      0.0240168952      0.0101725372     -0.0152725267
 H     -0.0014383678     -0.0151901226     -0.0152931451
 H      0.0106717827     -0.0015898111      0.0007015857
 H      0.0107990556     -0.0334458609      0.0334939179
 H      0.0004738922     -0.0101936708      0.0183326494
 H      0.0194873744     -0.0446159093     -0.0634184883
 H     -0.0224111184      0.0107777868     -0.0552106316
 H      0.0100776621      0.0333622323     -0.0689914978
 H      0.0148389818      0.0537845910      0.0167642636
 H      0.0143491486      0.0319303469      0.0321748450
38
# ORCA AIMD Force Step 5, t=2.50 fs, E_Pot=-772.12974068 Hartree, Unit is Hartree/Angstrom
 C     -0.0301720712      0.0008736927     -0.0146184713
 C      0.0029319755     -0.0741289151     -0.0090430882
 C     -0.0132194900      0.0203711610      0.0013437634
 C     -0.0248891198      0.0539008037     -0.0112445374
 C      0.0240509357     -0.0203122408      0.0178803669
 C     -0.0027439274      0.0146907931      0.0108477168
 C     -0.0231055360      0.0262614511      0.0020015464
 C      0.0046882322      0.0066445754      0.0430981838
 C     -0.0015082308     -0.0107243757      0.0094479498
 C     -0.0012851705      0.0266758733     -0.0090715544
 C     -0.0300500566      0.0046533749      0.0623119049
 C     -0.0309738128     -0.0038540371      0.0095613986
 C     -0.0412925950      0.0267723964      0.0065720842
 C      0.0148632298      0.0057134656      0.0362573777
 C      0.0135307377     -0.0032183875     -0.0893507310
 C     -0.0142255696      0.0476159644      0.0529692407
 C      0.0547767690     -0.0021956235      0.0008701892
 C     -0.0294165728     -0.0187786445      0.1151469125
 C      0.0056309076     -0.0713413838     -0.0890537065
 C      0.0216116899     -0.0029562342      0.0119429229
 H      0.0438743776     -0.0063345091      0.0326198686
 H      0.0045338952      0.0184012274      0.0041296121
 H     -0.0099570370     -0.0297469057     -0.0058593296
 H     -0.0243990044     -0.0155425629     -0.0283105932
 H     -0.0098887308      0.0164852614     -0.0183105422
 H      0.0073735447     -0.0305127815     -0.0013998715
 H      0.0046529963     -0.0024949085      0.0014410046
 H     -0.0013944485     -0.0023552708     -0.0202009773
 H      0.0234220675      0.0078966736     -0.0125429964
 H      0.0032157998     -0.0185702151     -0.0219370525
 H      0.0134963089     -0.0022677828     -0.0048414027
 H      0.0097927970     -0.0337442890      0.0332580129
 H     -0.0019439891     -0.0073998200      0.0233221696
 H      0.0201548204     -0.0490528975     -0.0644362768
 H     -0.0226342489      0.0107794019     -0.0557932718
 H      0.0105918070      0.0340171581     -0.0709497606
 H      0.0144047937      0.0536143561      0.0216892655
 H      0.0148842583      0.0301017637      0.0304891281
38
# ORCA AIMD Force Step 6, t=3.00 fs, E_Pot=-772.12557800 Hartree, Unit is Hartree/Angstrom
 C     -0.0297218814     -0.0027866618     -0.0114821861
 C      0.0003955159     -0.0866332689     -0.0144210274
 C     -0.0153984931      0.0171326096      0.0029272726
 C     -0.0351379314      0.0648233781     -0.0188969025
 C      0.0250215134     -0.0198166900      0.0154365922
 C     -0.0018763962      0.0149747704      0.0112400188
 C     -0.0236971819      0.0288836280      0.0073295228
 C      0.0005601411      0.0120527095      0.0475996393
 C      0.0069081703     -0.0127907397      0.0124468782
 C     -0.0047898619      0.0354924932     -0.0159247137
 C     -0.0308205424      0.0043564542      0.0694082394
 C     -0.0339515964     -0.0020209331      0.0094789265
 C     -0.0493240129      0.0312492938      0.0097654767
 C      0.0218343407     -0.0007296753      0.0412223631
 C      0.0155566716     -0.0047354755     -0.0966708337
 C     -0.0141132855      0.0529150416      0.0498125960
 C      0.0547720388     -0.0019942425     -0.0045255800
 C     -0.0306598083     -0.0128062661      0.1268492292
 C      0.0076460613     -0.0771105457     -0.1078596221
 C      0.0219789162      0.0028013802      0.0192702941
 H      0.0447934012     -0.0024721765      0.0308841573
 H      0.0046232353      0.0244159330      0.0037631981
 H     -0.0064434721     -0.0264904569     -0.0025913931
 H     -0.0205525984     -0.0175630180     -0.0251748198
 H     -0.0095486683      0.0132813522     -0.0128812710
 H      0.0103125802     -0.0370144677     -0.0011141126
 H      0.0084275222     -0.0062996872     -0.0014110249
 H     -0.0021624038     -0.0028744033     -0.0266381381
 H      0.0213163639      0.0046918118     -0.0085723407
 H      0.0066000054     -0.0212790101     -0.0270217712
 H      0.0160783498     -0.0028579904     -0.0099616374
 H      0.0079191694     -0.0319099878      0.0310685205
 H     -0.0041489989     -0.0048235255      0.0277524064
 H      0.0198124652     -0.0515535817     -0.0618780363
 H     -0.0211812661      0.0106173885     -0.0529646517
 H      0.0100921643      0.0326335910     -0.0688263682
 H      0.0130752357      0.0499758174      0.0262122118
 H      0.0151832261      0.0261935876      0.0265972996
38
# ORCA AIMD Force Step 7, t=3.50 fs, E_Pot=-772.12274057 Hartree, Unit is Hartree/Angstrom
 C     -0.0272738205     -0.0072793250     -0.0066153075
 C     -0.0025007453     -0.0959715587     -0.0198982885
 C     -0.0183047597      0.0123208930      0.0035656098
 C     -0.0463524742      0.0744088988     -0.0277866630
 C      0.0251616721     -0.0179950498      0.0115537228
 C      0.0008326488      0.0135993737      0.0120639538
 C     -0.0233524007      0.0305950465      0.0123132981
 C     -0.0039379556      0.0173100487      0.0489497764
 C      0.0162609072     -0.0136692032      0.0142649844
 C     -0.0082467071      0.0434164781     -0.0222147216
 C     -0.0310094874      0.0038267163      0.0749317003
 C     -0.0351052381     -0.0009903583      0.0075676866
 C     -0.0564615493      0.0352294140      0.0122817971
 C      0.0290461574     -0.0088939464      0.0465970643
 C      0.0171871798     -0.0058251032     -0.1015848700
 C     -0.0128670980      0.0557055880      0.0430454153
 C      0.0524191338     -0.0013674233     -0.0126967996
 C     -0.0306610842     -0.0057603385      0.1322816127
 C      0.0103244334     -0.0781193700     -0.1231819115
 C      0.0230391957      0.0105344245      0.0279301048
 H      0.0434077359      0.0022992219      0.0270360670
 H      0.0050131581      0.0279755509      0.0039536600
 H     -0.0020235133     -0.0214134619      0.0013468347
 H     -0.0150875427     -0.0190604598     -0.0202495786
 H     -0.0087088029      0.0088443347     -0.0061326833
 H      0.0112462596     -0.0416160486     -0.0014778964
 H      0.0115371866     -0.0095458172     -0.0037278123
 H     -0.0026759768     -0.0032301510     -0.0302795228
 H      0.0179501305      0.0008228703     -0.0036155409
 H      0.0079561441     -0.0230500563     -0.0297959075
 H      0.0183218560     -0.0033517218     -0.0142354888
 H      0.0053259668     -0.0279102956      0.0269684648
 H     -0.0058997229     -0.0026497314      0.0314562104
 H      0.0184576475     -0.0519315210     -0.0557549989
 H     -0.0179563697      0.0102664690     -0.0465255590
 H      0.0084573953      0.0292810031     -0.0626951688
 H      0.0107197862      0.0428572596      0.0300442254
 H      0.0151374332      0.0202605796      0.0205695353
38
# ORCA AIMD Force Step 8, t=4.00 fs, E_Pot=-772.12084811 Hartree, Unit is Hartree/Angstrom
 C     -0.0228691761     -0.0125159964      0.0000533876
 C     -0.0056808634     -0.1024806682     -0.0262259659
 C     -0.0219761611      0.0060556153      0.0038912408
 C     -0.0587808955      0.0829607020     -0.0380174193
 C      0.0249436606     -0.0150591591      0.0064485655
 C      0.0058096345      0.0103276457      0.0136749386
 C     -0.0217450123      0.0310519760      0.0170841449
 C     -0.0093662202      0.0226748969      0.0468014964
 C      0.0268832331     -0.0139319298      0.0150260338
 C     -0.0118311661      0.0514417621     -0.0281175717
 C     -0.0306572691      0.0030446630      0.0791694231
 C     -0.0339232050     -0.0004078436      0.0039207153
 C     -0.0633517277      0.0388764151      0.0135977557
 C      0.0370024581     -0.0186990410      0.0526437168
 C      0.0182730559     -0.0062105803     -0.1042740651
 C     -0.0103737585      0.0563638093      0.0321930907
 C      0.0474320559     -0.0005354817     -0.0237265899
 C     -0.0290403584      0.0027098345      0.1312265555
 C      0.0138460428     -0.0745663842     -0.1358153219
 C      0.0242330824      0.0200404525      0.0381136026
 H      0.0398432850      0.0079423023      0.0211946126
 H      0.0059460449      0.0288106789      0.0048081711
 H      0.0030818340     -0.0148366460      0.0058342852
 H     -0.0082269018     -0.0200827154     -0.0137537914
 H     -0.0074677373      0.0035108583      0.0016736471
 H      0.0097498456     -0.0443010585     -0.0026932084
 H      0.0138689832     -0.0118619952     -0.0053290387
 H     -0.0027473533     -0.0033512136     -0.0308561363
 H      0.0133793272     -0.0037116386      0.0022335639
 H      0.0071679716     -0.0241796328     -0.0302570590
 H      0.0203399372     -0.0038108189     -0.0172286689
 H      0.0020005050     -0.0218616505      0.0210161521
 H     -0.0072197450     -0.0014406728      0.0344109173
 H      0.0160084017     -0.0500366781     -0.0458192916
 H     -0.0129680418      0.0097560522     -0.0364965764
 H      0.0055879850      0.0236217487     -0.0519227254
 H      0.0073892547      0.0321174248      0.0331549403
 H      0.0148147069      0.0124992295      0.0126117502
38
# ORCA AIMD Force Step 9, t=4.50 fs, E_Pot=-772.11918135 Hartree, Unit is Hartree/Angstrom
 C     -0.0166063443     -0.0183021747      0.0082481716
 C     -0.0093190687     -0.1055030824     -0.0327220093
 C     -0.0257778351     -0.0010509570      0.0037403950
 C     -0.0713439192      0.0900245685     -0.0487495191
 C      0.0240800679     -0.0114436396      0.0009071435
 C      0.0126424238      0.0056286444      0.0158267330
 C     -0.0188205701      0.0300308507      0.0207983030
 C     -0.0152330705      0.0277627973      0.0410483177
 C      0.0375903319     -0.0132490330      0.0147543331
 C     -0.0151352701      0.0582918679     -0.0330549257
 C     -0.0296757361      0.0021332689      0.0818848820
 C     -0.0307449273     -0.0005285961     -0.0014659867
 C     -0.0694821882      0.0422279186      0.0136330214
 C      0.0448092205     -0.0296366674      0.0584351222
 C      0.0189102673     -0.0058409664     -0.1044924197
 C     -0.0064900532      0.0537862717      0.0174644611
 C      0.0401738273      0.0006851601     -0.0372502130
 C     -0.0258421811      0.0120139166      0.1225969303
 C      0.0180082077     -0.0658321143     -0.1438136774
 C      0.0260983104      0.0305867510      0.0488465215
 H      0.0340218987      0.0142461869      0.0134142961
 H      0.0073298978      0.0268946626      0.0063508774
 H      0.0085406710     -0.0072798848      0.0105226970
 H     -0.0004691452     -0.0205666414     -0.0061832031
 H     -0.0059140718     -0.0023671066      0.0098253470
 H      0.0061751748     -0.0451573040     -0.0045706470
 H      0.0150567331     -0.0129973834     -0.0058777033
 H     -0.0024127787     -0.0032599542     -0.0281225688
 H      0.0081659789     -0.0084029218      0.0084491242
 H      0.0042333045     -0.0245704515     -0.0283582957
 H      0.0220406371     -0.0042014357     -0.0187689944
 H     -0.0017408705     -0.0141203712      0.0136197830
 H     -0.0080234193     -0.0009256151      0.0365346505
 H      0.0124027772     -0.0455215649     -0.0319040674
 H     -0.0063386186      0.0091118935     -0.0231483408
 H      0.0013104514      0.0157626160     -0.0366677555
 H      0.0029899024      0.0180912848      0.0352499907
 H      0.0141658357      0.0034098728      0.0032381634
38
# ORCA AIMD Force Step 10, t=5.00 fs, E_Pot=-772.11686494 Hartree, Unit is Hartree/Angstrom
 C     -0.0084782651     -0.0244697982      0.0179284576
 C     -0.0131774278     -0.1056694384     -0.0397394022
 C     -0.0297376431     -0.0084679416      0.0035901367
 C     -0.0838508750      0.0957127164     -0.0597165182
 C      0.0230911061     -0.0076357730     -0.0046224485
 C      0.0211835277     -0.0003940246      0.0185375125
 C     -0.0145505999      0.0274487548      0.0237364514
 C     -0.0217344068      0.0326670221      0.0321094911
 C      0.0483163474     -0.0122493103      0.0137942977
 C     -0.0183651588      0.0646931476     -0.0370386376
 C     -0.0281520738      0.0009553841      0.0828968806
 C     -0.0257510102     -0.0008387234     -0.0081540029
 C     -0.0750380571      0.0451453073      0.0121440597
 C      0.0528003995     -0.0414258822      0.0640278449
 C      0.0189805029     -0.0045134968     -0.1021771515
 C     -0.0011710408      0.0482964633     -0.0018683646
 C      0.0305921818      0.0021616196     -0.0528710563
 C     -0.0206798742      0.0225001130      0.1060887243
 C      0.0228311774     -0.0525714290     -0.1478226826
 C      0.0281530583      0.0417115163      0.0597610891
 H      0.0261097295      0.0211261969      0.0038766366
 H      0.0092501404      0.0224173301      0.0085112426
 H      0.0140027027      0.0006904242      0.0151797463
 H      0.0077030585     -0.0205965231      0.0019615527
 H     -0.0042192438     -0.0082143102      0.0178140966
 H      0.0006434429     -0.0444111224     -0.0070699992
 H      0.0151112544     -0.0127518993     -0.0053425621
 H     -0.0016211049     -0.0029166826     -0.0225084044
 H      0.0026537000     -0.0130794266      0.0146986773
 H     -0.0005391041     -0.0245202206     -0.0244380017
 H      0.0234912384     -0.0045714166     -0.0186034222
 H     -0.0058315002     -0.0049875387      0.0050161397
 H     -0.0083398009     -0.0015733475      0.0378069714
 H      0.0075063270     -0.0381170155     -0.0135947800
 H      0.0017670107      0.0083759303     -0.0067787914
 H     -0.0045410263      0.0053569263     -0.0163178757
 H     -0.0023272818      0.0010892103      0.0363496674
 H      0.0132967206     -0.0064319669     -0.0069430654
38
# ORCA AIMD Force Step 11, t=5.50 fs, E_Pot=-772.11320306 Hartree, Unit is Hartree/Angstrom
 C      0.0010086686     -0.0307015004      0.0285882736
 C     -0.0171222151     -0.1034061328     -0.0467844614
 C     -0.0332526982     -0.0153281852      0.0036661801
 C     -0.0952696998      0.0999673519     -0.0699337148
 C      0.0220342196     -0.0043315622     -0.0092485096
 C      0.0306397149     -0.0072015109      0.0214307258
 C     -0.0090872992      0.0233723471      0.0256692413
 C     -0.0285123309      0.0372386262      0.0208298669
 C      0.0580987568     -0.0110962051      0.0124665715
 C     -0.0213497976      0.0701728418     -0.0398257654
 C     -0.0260418228     -0.0004022458      0.0821622471
 C     -0.0196456584     -0.0013444602     -0.0154953519
 C     -0.0798275651      0.0476840497      0.0092420232
 C      0.0603936321     -0.0532214450      0.0685631408
 C      0.0185913057     -0.0023091850     -0.0971880721
 C      0.0055765891      0.0395289638     -0.0255194385
 C      0.0193360825      0.0038925950     -0.0694805419
 C     -0.0136462570      0.0338291707      0.0820349937
 C      0.0279998071     -0.0355319687     -0.1472927623
 C      0.0304809908      0.0522556864      0.0696482192
 H      0.0165235360      0.0282630500     -0.0069584630
 H      0.0115010424      0.0160045743      0.0110694781
 H      0.0189689204      0.0082326051      0.0193733830
 H      0.0154986698     -0.0202465507      0.0098428345
 H     -0.0025719607     -0.0133676576      0.0247941539
 H     -0.0060975390     -0.0424497814     -0.0098676520
 H      0.0140197871     -0.0111414540     -0.0037279708
 H     -0.0004946827     -0.0023675968     -0.0147439376
 H     -0.0024672359     -0.0172380433      0.0203580054
 H     -0.0065377878     -0.0241423954     -0.0190505774
 H      0.0246358554     -0.0048951814     -0.0168639426
 H     -0.0099367839      0.0048089297     -0.0041268074
 H     -0.0082005288     -0.0032139427      0.0382057827
 H      0.0013520608     -0.0277359542      0.0089410666
 H      0.0108151774      0.0076312657      0.0115155394
 H     -0.0119630939     -0.0072853712      0.0084530064
 H     -0.0083726429     -0.0179063219      0.0363962470
 H      0.0123073909     -0.0160655945     -0.0169401252
38
# ORCA AIMD Force Step 12, t=6.00 fs, E_Pot=-772.10805748 Hartree, Unit is Hartree/Angstrom
 C      0.0111157891     -0.0365906629      0.0394905482
 C     -0.0208600038     -0.0994686230     -0.0535282936
 C     -0.0358692939     -0.0207473494      0.0043407747
 C     -0.1047157671      0.1028702273     -0.0784686156
 C      0.0211453580     -0.0022179232     -0.0122343537
 C      0.0402919970     -0.0143722467      0.0242032300
 C     -0.0027456521      0.0180749562      0.0267163464
 C     -0.0352852284      0.0413916466      0.0082393401
 C      0.0662292156     -0.0101760870      0.0112052459
 C     -0.0240574192      0.0746900276     -0.0412753826
 C     -0.0233544898     -0.0019513934      0.0795792211
 C     -0.0131600339     -0.0018736504     -0.0228253109
 C     -0.0837727463      0.0498177613      0.0051479739
 C      0.0672640555     -0.0640298275      0.0711309247
 C      0.0178245432      0.0006524916     -0.0894790059
 C      0.0134955218      0.0278785408     -0.0526658558
 C      0.0072573156      0.0058153333     -0.0853298288
 C     -0.0050584107      0.0453446464      0.0520791373
 C      0.0330581269     -0.0164239777     -0.1424970987
 C      0.0329045924      0.0610233562      0.0772849277
 H      0.0060013119      0.0352661423     -0.0183552069
 H      0.0138793657      0.0083908794      0.0137472929
 H      0.0229150115      0.0144594815      0.0226828123
 H      0.0220543305     -0.0196427897      0.0165299079
 H     -0.0011709146     -0.0171258571      0.0300258524
 H     -0.0133575823     -0.0396576219     -0.0126736293
 H      0.0119493866     -0.0083203292     -0.0012161402
 H      0.0008357331     -0.0016476465     -0.0057575508
 H     -0.0065308592     -0.0204563576      0.0248337940
 H     -0.0130802783     -0.0235921404     -0.0128236028
 H      0.0254422418     -0.0051561166     -0.0137451210
 H     -0.0137196561      0.0142887320     -0.0129496525
 H     -0.0077122237     -0.0057079124      0.0377489473
 H     -0.0058321126     -0.0147263883      0.0348982257
 H      0.0199852705      0.0069777134      0.0300723096
 H     -0.0206420386     -0.0214209994      0.0361000086
 H     -0.0146974549     -0.0373164992      0.0355270644
 H      0.0113703562     -0.0243584986     -0.0255741343
38
# ORCA AIMD Force Step 13, t=6.50 fs, E_Pot=-772.10213568 Hartree, Unit is Hartree/Angstrom
 C      0.0207304292     -0.0415982736      0.0495656479
 C     -0.0240819648     -0.0946194747     -0.0596135391
 C     -0.0371636410     -0.0238994200      0.0059360427
 C     -0.1113021029      0.1045194374     -0.0843722362
 C      0.0206045431     -0.0018903722     -0.0129839277
 C      0.0494524960     -0.0215361898      0.0265484946
 C      0.0040502877      0.0119729788      0.0270707905
 C     -0.0417268102      0.0450294406     -0.0046070921
 C      0.0720566738     -0.0098190664      0.0104005596