38
# ORCA AIMD Position Step 0, t=0.00 fs, E_Pot=-772.15624094 Hartree, Unit is Angstrom
 C      1.6210180073      0.6459190029     -0.7613860034
 C      2.4131070108      1.7232960077     -0.0390730002
 C      3.3368170149      1.4751640066      0.9183150041
 C      3.7032930166      0.1446820006      1.4320330064
 C      2.6657020119     -0.9823760044      1.5884660071
 C      3.7784220169     -1.1012640049      0.5293070024
 C      3.4905840156     -1.0556370047     -0.9149330041
 C      2.5424650114     -0.2958550013     -1.5116460068
 C      1.2399550056     -0.8349100037      1.2400100056
 C      0.7073820032     -0.1208610005      0.2068220009
 C     -0.7713990035      0.0355140002      0.0116520001
 C     -1.3046020058     -0.1796920008     -1.3227750059
 C     -2.6298810118      0.2827180013     -1.8682730084
 C     -3.3346520149      1.4436320065     -1.2681100057
 C     -3.5180180158      1.6110230072      0.0541190002
 C     -3.0294230136      0.6454340029      1.1080240050
 C     -1.5444950069      0.3527870016      1.1123370050
 C     -3.4695710155     -0.7946940036      1.0015590045
 C     -3.4258340153     -1.5423160069     -0.1484850007
 C     -2.9033230130     -1.1219670050     -1.4212860064
 H      0.9704210043      1.1521980052     -1.4969100067
 H      2.2256750100      2.7706280124     -0.3292790015
 H      3.8696290173      2.3294250104      1.3701000061
 H      4.4711820200      0.1585950007      2.2215300099
 H      2.8426290127     -1.6107950072      2.4759270111
 H      4.5840630205     -1.7974080080      0.8096450036
 H      4.1104530184     -1.7129520077     -1.5470710069
 H      2.4260620109     -0.3586730016     -2.6070520117
 H      0.5421190024     -1.3731590061      1.9025510085
 H     -0.5645410025     -0.4970660022     -2.0761230093
 H     -2.5923080116      0.3360990015     -2.9675110133
 H     -3.7063260166      2.2025100099     -1.9745520088
 H     -4.0408000181      2.5164090113      0.4005390018
 H     -3.3128860148      1.0409350047      2.1026710094
 H     -1.0652220048      0.3051380014      2.1006310094
 H     -3.6948260165     -1.3020730058      1.9511290087
 H     -3.6918850165     -2.6097260117     -0.0621260003
 H     -2.9409860132     -1.8806830084     -2.2207760099
38
# ORCA AIMD Position Step 1, t=0.50 fs, E_Pot=-772.15302940 Hartree, Unit is Angstrom
 C      1.6251824077      0.6443317647     -0.7599993204
 C      2.4131120983      1.7291867794     -0.0318250486
 C      3.3415450961      1.4736121155      0.9182762275
 C      3.7090383296      0.1387869274      1.4348827063
 C      2.6630335211     -0.9809219349      1.5862278973
 C      3.7760570704     -1.0996525792      0.5274924037
 C      3.4930154555     -1.0594634444     -0.9166841993
 C      2.5463616512     -0.2995421596     -1.5124500871
 C      1.2365997086     -0.8348811271      1.2397054783
 C      0.7094943917     -0.1289721081      0.2049075807
 C     -0.7686308157      0.0328293176      0.0079811836
 C     -1.3028776418     -0.1836785765     -1.3220999129
 C     -2.6244200720      0.2793313901     -1.8679392855
 C     -3.3382594595      1.4417481344     -1.2702152938
 C     -3.5169684283      1.6088911560      0.0568454262
 C     -3.0264738036      0.6417649150      1.1073103340
 C     -1.5427994300      0.3502904923      1.1124342317
 C     -3.4697712717     -0.7935473343      0.9961956456
 C     -3.4259155553     -1.5375128962     -0.1445462617
 C     -2.9007603676     -1.1241088040     -1.4228789382
 H      0.9556873050      1.1403588696     -1.5027694621
 H      2.2164646556      2.7669363301     -0.3284084841
 H      3.8736187460      2.3371001761      1.3677970673
 H      4.4792384241      0.1653276623      2.2313228348
 H      2.8450340637     -1.6196817572      2.4710114392
 H      4.5876286340     -1.7749644082      0.8144040352
 H      4.1066164008     -1.7191023134     -1.5482306528
 H      2.4258051028     -0.3621835270     -2.6012181804
 H      0.5299155304     -1.3700956193      1.9031222352
 H     -0.5578238463     -0.4820405227     -2.0683700183
 H     -2.6022538538      0.3366819541     -2.9648544920
 H     -3.7033265567      2.2121329323     -1.9827670520
 H     -4.0299494124      2.5242192216      0.3827642674
 H     -3.3147627924      1.0604799250      2.1144204705
 H     -1.0577642442      0.2998006576      2.1130908892
 H     -3.7021376776     -1.3078755339      1.9641220163
 H     -3.6999599283     -2.6164817772     -0.0818167429
 H     -2.9485934355     -1.8891052978     -2.2272409381
38
# ORCA AIMD Position Step 2, t=1.00 fs, E_Pot=-772.14772880 Hartree, Unit is Angstrom
 C      1.6292709906      0.6427647874     -0.7586612359
 C      2.4131931442      1.7350124215     -0.0245077865
 C      3.3462004109      1.4721382990      0.9181721861
 C      3.7147847255      0.1329123586      1.4377520336
 C      2.6604410129     -0.9795081717      1.5840365733
 C      3.7736974563     -1.0980253960      0.5257314401
 C      3.4953559877     -1.0632169801     -0.9185108686
 C      2.5503514739     -0.3033015193     -1.5131888842
 C      1.2331394250     -0.8348181261      1.2393311539
 C      0.7116667049     -0.1371319080      0.2030871767
 C     -0.7659799813      0.0301635864      0.0044475363
 C     -1.3012169836     -0.1877537565     -1.3214107350
 C     -2.6189912827      0.2759744237     -1.8676344867
 C     -3.3418937757      1.4399323599     -1.2721893704
 C     -3.5158980134      1.6067652469      0.0593457427
 C     -3.0235353053      0.6381320899      1.1067388062
 C     -1.5409316148      0.3477910925      1.1125002654
 C     -3.4700398564     -0.7925209338      0.9909317099
 C     -3.4259697783     -1.5327723005     -0.1406228381
 C     -2.8980724448     -1.1262800679     -1.4244643102
 H      0.9422730375      1.1278316598     -1.5073756091
 H      2.2075157572      2.7622994782     -0.3271372605
 H      3.8767420857      2.3432678901      1.3648179339
 H      4.4858780211      0.1717872032      2.2396963735
 H      2.8470267496     -1.6275410769      2.4646234620
 H      4.5903683773     -1.7521583825      0.8188342776
 H      4.1021402965     -1.7245223640     -1.5486716087
 H      2.4256909804     -0.3656715267     -2.5944105028
 H      0.5188070192     -1.3663088364      1.9026667554
 H     -0.5522000223     -0.4671720924     -2.0600950175
 H     -2.6121445340      0.3373328109     -2.9611994275
 H     -3.6997948068      2.2204539273     -1.9895175985
 H     -4.0185911349      2.5309391176      0.3650640498
 H     -3.3159343709      1.0787306731      2.1237845232
 H     -1.0510569391      0.2950970984      2.1234374000
 H     -3.7092930481     -1.3124938687      1.9746790963
 H     -3.7073165192     -2.6210343410     -0.1014266616
 H     -2.9554413392     -1.8959176245     -2.2321549892
38
# ORCA AIMD Position Step 3, t=1.50 fs, E_Pot=-772.14143589 Hartree, Unit is Angstrom
 C      1.6332549922      0.6412224754     -0.7573922174
 C      2.4133334762      1.7406967585     -0.0171399191
 C      3.3507987423      1.4707638652      0.9180268501
 C      3.7205221545      0.1271193188      1.4406389046
 C      2.6579386968     -0.9781617485      1.5819170732
 C      3.7713352312     -1.0963597398      0.5240249747
 C      3.4976004924     -1.0668879536     -0.9204020938
 C      2.5544271120     -0.3071150767     -1.5138200234
 C      1.2295786061     -0.8347508494      1.2389238746
 C      0.7138884171     -0.1453072737      0.2013243346
 C     -0.7634578444      0.0275153807      0.0011014077
 C     -1.2996424287     -0.1919058492     -1.3206966443
 C     -2.6136352109      0.2726724765     -1.8673469136
 C     -3.3455420298      1.4381880478     -1.2740254183
 C     -3.5147916413      1.6046398480      0.0615454568
 C     -3.0206299820      0.6346008486      1.1063808852
 C     -1.5388381975      0.3452798813      1.1125677121
 C     -3.4704097009     -0.7916299138      0.9859287129
 C     -3.4260015902     -1.5281933971     -0.1368273937
 C     -2.8952580922     -1.1284983842     -1.4260462132
 H      0.9307203356      1.1145400817     -1.5103219763
 H      2.1988430719      2.7572318006     -0.3254727581
 H      3.8789482725      2.3476388920      1.3611414748
 H      4.4908892919      0.1777783869      2.2463731884
 H      2.8485071903     -1.6342428952      2.4566406896
 H      4.5926045109     -1.7295659779      0.8229951790
 H      4.0972112906     -1.7293918896     -1.5484985051
 H      2.4256711356     -0.3691860401     -2.5871673617
 H      0.5090248445     -1.3617458716      1.9011094704
 H     -0.5473526706     -0.4527242522     -2.0517823302
 H     -2.6217742095      0.3379894659     -2.9568110668
 H     -3.6956028694      2.2270643637     -1.9944523508
 H     -4.0068513397      2.5366812580      0.3477911793
 H     -3.3161349738      1.0950585717      2.1299144850
 H     -1.0454332486      0.2910520535      2.1309688816
 H     -3.7160708657     -1.3154517483      1.9818363897
 H     -3.7138340969     -2.6227437524     -0.1206613465
 H     -2.9614753153     -1.9008395721     -2.2352013086
38
# ORCA AIMD Position Step 4, t=2.00 fs, E_Pot=-772.13517675 Hartree, Unit is Angstrom
 C      1.6371157005      0.6397008164     -0.7562025314
 C      2.4135182945      1.7461636399     -0.0097346906
 C      3.3553529799      1.4694996626      0.9178601358
 C      3.7262335952      0.1214655374      1.4435339630
 C      2.6555369577     -0.9769017608      1.5798829834
 C      3.7689581358     -1.0946325525      0.5223707303
 C      3.4997438948     -1.0704662221     -0.9223422738
 C      2.5585820903     -0.3109648941     -1.5142985680
 C      1.2259287217     -0.8347049609      1.2385159439
 C      0.7161484331     -0.1534677178      0.1995795674
 C     -0.7610724026      0.0248810883     -0.0020105666
 C     -1.2981789689     -0.1961260222     -1.3199444368
 C     -2.6083896195      0.2694485516     -1.8670601703
 C     -3.3491875436      1.4365075636     -1.2757125068
 C     -3.5136329583      1.6025048468      0.0633776703
 C     -3.0177714995      0.6312251267      1.1062839209
 C     -1.5364755738      0.3427481417      1.1126535602
 C     -3.4709082916     -0.7908738014      0.9813224575
 C     -3.4260121889     -1.5238586273     -0.1332731144
 C     -2.8923132842     -1.1307713970     -1.4276188724
 H      0.9214607782      1.1004841417     -1.5113243810
 H      2.1904383075      2.7522856923     -0.3234439206
 H      3.8802576409      2.3500432831      1.3568020889
 H      4.4941747714      0.1831170044      2.2511927094
 H      2.8494023481     -1.6397411638      2.4470515591
 H      4.5946931383     -1.7077597342      0.8269619924
 H      4.0920499684     -1.7339368044     -1.5478582974
 H      2.4256866946     -0.3727808822     -2.5800732283
 H      0.5007092579     -1.3564141924      1.8984533842
 H     -0.5429266185     -0.4389490001     -2.0439336985
 H     -2.6309489273      0.3385958869     -2.9520037932
 H     -3.6906828575      2.2316792327     -1.9973364057
 H     -3.9948647499      2.5416032371      0.3312850198
 H     -3.3151758051      1.1089558298      2.1322391420
 H     -1.0411210607      0.2876813076      2.1351981381
 H     -3.7223186950     -1.3164245454      1.9849180606
 H     -3.7194406354     -2.6211686122     -0.1392210505
 H     -2.9666469202     -1.9037187486     -2.2361981570
38
# ORCA AIMD Position Step 5, t=2.50 fs, E_Pot=-772.12974068 Hartree, Unit is Angstrom
 C      1.6408440998      0.6381881572     -0.7550923936
 C      2.4137343087      1.7513392266     -0.0023024272
 C      3.3598713888      1.4683463847      0.9176874613
 C      3.7318935746      0.1160061197      1.4464195325
 C      2.6532429546     -0.9757393511      1.5779370552
 C      3.7665536375     -1.0928234248      0.5207652934
 C      3.5017812004     -1.0739408725     -0.9243119542
 C      2.5628094702     -0.3148325499     -1.5145812653
 C      1.2222089982     -0.8347012042      1.2381342319
 C      0.7184348515     -0.1615839246      0.1978118429
 C     -0.7588287930      0.0222555183     -0.0048449510
 C     -1.2968520326     -0.2004082647     -1.3191418959
 C     -2.6032904317      0.2663238334     -1.8667549254
 C     -3.3528092930      1.4348724944     -1.2772353127
 C     -3.5124052887      1.6003472567      0.0647832184
 C     -3.0149660101      0.6280482684      1.1064736140
 C     -1.5338106806      0.3401882115      1.1127594640
 C     -3.4715576619     -0.7902395341      0.9772239206
 C     -3.4259987923     -1.5198329094     -0.1300713322
 C     -2.8892314451     -1.1330958322     -1.4291661281
 H      0.9148089528      1.0857395795     -1.5102244705
 H      2.1822803965      2.7480068183     -0.3210889999
 H      3.8807609769      2.3504325847      1.3518902160
 H      4.4957498010      0.1876325381      2.2541113851
 H      2.8496682190     -1.6440763765      2.4359575099
 H      4.5969843259     -1.6872821167      0.8308110629
 H      4.0868997480     -1.7384158960     -1.5469280626
 H      2.4256739612     -0.3765106621     -2.5737072635
 H      0.4939080852     -1.3503829151      1.8947820899
 H     -0.5385654629     -0.4260756425     -2.0370326211
 H     -2.6394867170      0.3391024280     -2.9471191080
 H     -3.6850250208      2.2341393808     -1.9980512311
 H     -3.9827684660      2.5458915891      0.3158681195
 H     -3.3129372167      1.1200295942      2.1304359089
 H     -1.0382446770      0.2849925386      2.1358482380
 H     -3.7279491851     -1.3152241619      1.9835127265
 H     -3.7241145630     -2.6160693529     -0.1568074474
 H     -2.9709150584     -1.9045308124     -2.2350995555
38
# ORCA AIMD Position Step 6, t=3.00 fs, E_Pot=-772.12557800 Hartree, Unit is Angstrom
 C      1.6444391800      0.6366671974     -0.7540528775
 C      2.4139682850      1.7561527685      0.0051445485
 C      3.3643563613      1.4672949283      0.9175206670
 C      3.7374659528      0.1107952686      1.4492683687
 C      2.6510610933     -0.9746783605      1.5760724154
 C      3.7641132624     -1.0909180052      0.5192054945
 C      3.5037093305     -1.0773014702     -0.9262877017
 C      2.5670991797     -0.3186972214     -1.5146298681
 C      1.2184487935     -0.8347562751      1.2378010698
 C      0.7207340110     -0.1696239883      0.1959790257
 C     -0.7567306874      0.0196327572     -0.0073618788
 C     -1.2956836063     -0.2047487333     -1.3182799300
 C     -2.5983737298      0.2633190018     -1.8664109674
 C     -3.3563808217      1.4332546275     -1.2785723057
 C     -3.5110927278      1.5981533233      0.0657105387
 C     -3.0122143084      0.6251052440      1.1069556680
 C     -1.5308220770      0.3375940681      1.1128710606
 C     -3.4723741053     -0.7897028411      0.9737218778
 C     -3.4259543748     -1.5161638920     -0.1273305968
 C     -2.8860043107     -1.1354566163     -1.4306612310
 H      0.9109688571      1.0704530993     -1.5069817477
 H      2.1743483685      2.7448943124     -0.3184436211
 H      3.8806174954      2.3488798542      1.3465526274
 H      4.4957428084      0.1911707050      2.2552038593
 H      2.8492896836     -1.6473710102      2.4235699324
 H      4.5997775681     -1.6686227043      0.8346019073
 H      4.0820092386     -1.7430969284     -1.5458955348
 H      2.4255699227     -0.3804267637     -2.5686072987
 H      0.4885797991     -1.3437829917      1.8902587185
 H     -0.5339562422     -0.4143052980     -2.0315064477
 H     -2.6472157842      0.3394650450     -2.9425087540
 H     -3.6786777675      2.2344140022     -1.9965972215
 H     -3.9706945927      2.5497331304      0.3018429822
 H     -3.3093611531      1.1279912443      2.1244030295
 H     -1.0368236366      0.2829854482      2.1328551707
 H     -3.7329357329     -1.3117887156      1.9774552189
 H     -3.7278869033     -2.6074196493     -0.1731276532
 H     -2.9742467400     -1.9033812969     -2.2319975001
38
# ORCA AIMD Position Step 7, t=3.50 fs, E_Pot=-772.12274057 Hartree, Unit is Angstrom
 C      1.6479077627      0.6351153808     -0.7530658018
 C      2.4142068260      1.7605396722      0.0125884523
 C      3.3688026092      1.4663268263      0.9173682461
 C      3.7429023008      0.1058871980      1.4520425364
 C      2.6489943607     -0.9737153697      1.5742735003
 C      3.7616376301     -1.0889108520      0.5176914863
 C      3.5055270120     -1.0805377774     -0.9282433905
 C      2.5714358243     -0.3225352036     -1.5144175162
 C      1.2146880886     -0.8348821650      1.2375328687
 C      0.7230303680     -0.1775513043      0.1940399994
 C     -0.7547804191      0.0170071094     -0.0095232999
 C     -1.2946897205     -0.2091446798     -1.3173570860
 C     -2.5936776820      0.2604550920     -1.8660098537
 C     -3.3598689361      1.4316162115     -1.2796965454
 C     -3.5096812987      1.5959109483      0.0661163540
 C     -3.0095119933      0.6224227773      1.1077162572
 C     -1.5275020700      0.3349624481      1.1129589404
 C     -3.4733673020     -0.7892310021      0.9708807773
 C     -3.4258675055     -1.5128809088     -0.1251542826
 C     -2.8826234575     -1.1378261501     -1.4320657737
 H      0.9100212051      1.0548485254     -1.5016845184
 H      2.1666378308      2.7433479943     -0.3155248962
 H      3.8800508250      2.3455774614      1.3409908613
 H      4.4943905872      0.1935955559      2.2546598240
 H      2.8482823225     -1.6498300709      2.4102126301
 H      4.6032743219     -1.6521950938      0.8383585916
 H      4.0776203050     -1.7482381316     -1.5449448012
 H      2.4253232923     -0.3845710322     -2.5651986439
 H      0.4845921811     -1.3368085132      1.8851280442
 H     -0.5288679294     -0.4038073123     -2.0276923353
 H     -2.6539715547      0.3396443154     -2.9385032473
 H     -3.6717473135      2.2326029389     -1.9930949271
 H     -3.9587688244      2.5532982509      0.2894908310
 H     -3.3044518116      1.1326601397      2.1142585832
 H     -1.0367743704      0.2816527397      2.1263649924
 H     -3.7373127368     -1.3061822929      1.9668311278
 H     -3.7308420450     -2.5954106181     -0.1878991428
 H     -2.9766187507     -1.9005056717     -2.2271229491
38
# ORCA AIMD Position Step 8, t=4.00 fs, E_Pot=-772.12084811 Hartree, Unit is Angstrom
 C      1.6512649505      0.6335063491     -0.7521041280
 C      2.4144342713      1.7644478674      0.0200055892
 C      3.3731975934      1.4654156895      0.9172337278
 C      3.7481442436      0.1013335656      1.4546947879
 C      2.6470429673     -0.9728405808      1.5725181184
 C      3.7591391108     -1.0868067033      0.5162269756
 C      3.5072365336     -1.0836418625     -0.9301531112
 C      2.5757989365     -0.3263206407     -1.5139338249
 C      1.2109750210     -0.8350845650      1.2373400798
 C      0.7253068824     -0.1853279813      0.1919573913
 C     -0.7529789164      0.0143733632     -0.0112969409
 C     -1.2938777162     -0.2135948333     -1.3163824197
 C     -2.5892398020      0.2577530016     -1.8655368007
 C     -3.3632361333      1.4299107473     -1.2805772010
 C     -3.5081597673      1.5936116887      0.0659684524
 C     -3.0068504071      0.6200166613      1.1087218225
 C     -1.5238571855      0.3322941211      1.1129780249
 C     -3.4745400019     -0.7887855826      0.9687350604
 C     -3.4257229388     -1.5099907807     -0.1236307229
 C     -2.8790784974     -1.1401640817     -1.4333324185
 H      0.9119052831      1.0392213960     -1.4945582645
 H      2.1591700097      2.7436162997     -0.3123149166
 H      3.8793453732      2.3408363287      1.3354555855
 H      4.4920354668      0.1947992693      2.2527838560
 H      2.8466935535     -1.6517373029      2.3963055991
 H      4.6075462458     -1.6383101764      0.8420601799
 H      4.0739381139     -1.7540614058     -1.5442276099
 H      2.4248987089     -0.3889727768     -2.5637348126
 H      0.4817356628     -1.3297027862      1.8797037171
 H     -0.5232022205     -0.3947021378     -2.0257868824
 H     -2.6596025932      0.3396061111     -2.9353854153
 H     -3.6643912465      2.2289442809     -1.9877879459
 H     -3.9470970628      2.5567294211      0.2790613388
 H     -3.2982794442      1.1339804668      2.1003508894
 H     -1.0379003010      0.2809774730      2.1167564271
 H     -3.7411845238     -1.2985964221      1.9519840415
 H     -3.7331280606     -2.5804621708     -0.2008672652
 H     -2.9780259088     -1.8962715289     -2.2208474765
38
# ORCA AIMD Position Step 9, t=4.50 fs, E_Pot=-772.11918135 Hartree, Unit is Angstrom
 C      1.6545347610      0.6318101683     -0.7511311865
 C      2.4146330903      1.7678374310      0.0273632305
 C      3.3775219511      1.4645274367      0.9171190605
 C      3.7531229474      0.0971839182      1.4571683634
 C      2.6452063950     -0.9720385739      1.5707781458
 C      3.7566440089     -1.0846217826      0.5148209096
 C      3.5088460537     -1.0866107096     -0.9319907310
 C      2.5801603623     -0.3300246552     -1.5131873945
 C      1.2073673308     -0.8353658442      1.2372276735
 C      0.7275443517     -0.1929106803      0.1896964841
 C     -0.7513253471      0.0117262951     -0.0126557094
 C     -1.2932428863     -0.2180980115     -1.3153750827
 C     -2.5850994578      0.2552337396     -1.8649836166
 C     -3.3664383912      1.4280830517     -1.2811785782
 C     -3.5065204446      1.5912520579      0.0652457761
 C     -3.0042154617      0.6178928613      1.1099157951
 C     -1.5199100220      0.3295924013      1.1128669267
 C     -3.4758856890     -0.7883201870      0.9672860742
 C     -3.4255006249     -1.5074774859     -0.1228362134
 C     -2.8753598995     -1.1424185513     -1.4344040467
 H      0.9164201246      1.0239360629     -1.4859626927
 H      2.1520063643      2.7457744252     -0.3087534278
 H      3.8788336947      2.3350694675      1.3302392199
 H      4.4891147060      0.1947015390      2.2499857698
 H      2.8445976058     -1.6534363797      2.3823494707
 H      4.6125054185     -1.6271680045      0.8456276359
 H      4.0711221572     -1.7607279530     -1.5438512232
 H      2.4242893613     -0.3936442171     -2.5642749879
 H      0.4797227345     -1.3227590398      1.8743637618
 H     -0.5170024396     -0.3870765383     -2.0258411642
 H     -2.6639658659      0.3393179074     -2.9333602776
 H     -3.6568202257      2.2238121927     -1.9810440947
 H     -3.9357649157      2.5601053994      0.2707663369
 H     -3.2909882796      1.1320390512      2.0832838658
 H     -1.0398883334      0.2809334062      2.1046481194
 H     -3.7447345473     -1.2893770398      1.9335672029
 H     -3.7349562546     -2.5632398270     -0.2118121187
 H     -2.9784789370     -1.8911705163     -2.2136744706
38
# ORCA AIMD Position Step 10, t=5.00 fs, E_Pot=-772.11686494 Hartree, Unit is Angstrom
 C      1.6577512021      0.6299937265     -0.7501016301
 C      2.4147829922      1.7706863959      0.0346263133
 C      3.3817547541      1.4636231098      0.9170236228
 C      3.7577672300      0.0934809808      1.4594026650
 C      2.6434808865     -0.9712901688      1.5690229880
 C      3.7541894700     -1.0823805945      0.5134855341
 C      3.5103707863     -1.0894489110     -0.9337353371
 C      2.5844886220     -0.3336190130     -1.5122066901
 C      1.2039244305     -0.8357232070      1.2371950607
 C      0.7297245694     -0.2002608862      0.1872276810
 C     -0.7498157195      0.0090602650     -0.0135801529
 C     -1.2927696853     -0.2226563004     -1.3143641254
 C     -2.5812930209      0.2529173759     -1.8643490861
 C     -3.3694314805      1.4260712708     -1.2814657406
 C     -3.5047581777      1.5888329672      0.0639403833
 C     -3.0015856419      0.6160400744      1.1112196021
 C     -1.5156962853      0.3268631264      1.1125497961
 C     -3.4773890173     -0.7877833620      0.9664941394
 C     -3.4251767524     -1.5052968983     -0.1228229597
 C     -2.8714547436     -1.1445310379     -1.4352196151
 H      0.9232155387      1.0094065680     -1.4763889160
 H      2.1452397357      2.7497190103     -0.3047347060
 H      3.8788754476      2.3287589622      1.3256515554
 H      4.4861293588      0.1932556829      2.2467502825
 H      2.8420900233     -1.6553101853      2.3688750512
 H      4.6179265201     -1.6188541968      0.8489370992
 H      4.0692596817     -1.7683230367     -1.5438554277
 H      2.4235149269     -0.3985833209     -2.5666632867
 H      0.4782212935     -1.3162851363      1.8695152680
 H     -0.5104535285     -0.3809717540     -2.0277533752
 H     -2.6669361911      0.3387511934     -2.9325409202
 H     -3.6492754509      2.2176958079     -1.9733300473
 H     -3.9248268816      2.5634598931      0.2647679739
 H     -3.2828002805      1.1270937368      2.0639294579
 H     -1.0423145548      0.2814856035      2.0908833617
 H     -3.7482398993     -1.2790184199      1.9125353383
 H     -3.7366098220     -2.5446329535     -0.2205751905
 H     -2.9780094391     -1.8857870414     -2.2062062277
38
# ORCA AIMD Position Step 11, t=5.50 fs, E_Pot=-772.11320306 Hartree, Unit is Angstrom
 C      1.6609600931      0.6280206901     -0.7489609997
 C      2.4148622656      1.7729889936      0.0417591189
 C      3.3858754670      1.4626612436      0.9169467645
 C      3.7620069069      0.0902592976      1.4613357821
 C      2.6418613762     -0.9705746558      1.5672210999
 C      3.7518215876     -1.0801143539      0.5122358594
 C      3.5118340378     -1.0921706694     -0.9353706289
 C      2.5887499525     -0.3370774213     -1.5110375383
 C      1.2007053588     -0.8361522563      1.2372378924
 C      0.7318302945     -0.2073446780      0.1845252575
 C     -0.7484425370      0.0063671092     -0.0140600590
 C     -1.2924323156     -0.2272745602     -1.3133857208
 C     -2.5778529126      0.2508210881     -1.8636400816
 C     -3.3721706254      1.4238072989     -1.2814043674
 C     -3.5028701541      1.5863596821      0.0620573697
 C     -2.9989303217      0.6144303183      1.1125289714
 C     -1.5112631786      0.3241125895      1.1119381305
 C     -3.4790243005     -0.7871163125      0.9662758593
 C     -3.4247234213     -1.5033788641     -0.1236222698
 C     -2.8673473756     -1.1464398516     -1.4357165238
 H      0.9318039833      0.9960846349     -1.4664449011
 H      2.1389969231      2.7551801064     -0.3001095888
 H      3.8798350529      2.3224170479      1.3220026304
 H      4.4836123980      0.1904429472      2.2436040060
 H      2.8392755754     -1.6577448841      2.3564040249
 H      4.6234556132     -1.6133488821      0.8518235853
 H      4.0683645557     -1.7768457641     -1.5442096853
 H      2.4226248852     -0.4037734870     -2.5705551621
 H      0.4768754670     -1.3105894681      1.8655708302
 H     -0.5038604000     -0.3763991976     -2.0312897927
 H     -2.6684036317      0.3378781141     -2.9329303597
 H     -3.6420210796      2.2111783970     -1.9651936966
 H     -3.9143023643      2.5667520532      0.2611735731
 H     -3.2740210850      1.1195912395      2.0434493726
 H     -1.0446544818      0.2825932313      2.0765073411
 H     -3.7520853150     -1.2681830532      1.8901790284
 H     -3.7384359366     -2.5257287465     -0.2270633480
 H     -2.9766631441     -1.8807595564     -2.1991021387
38
# ORCA AIMD Position Step 12, t=6.00 fs, E_Pot=-772.10805748 Hartree, Unit is Angstrom
 C      1.6642179243      0.6258520627     -0.7476476605
 C      2.4148484091      1.7747538141      0.0487309791
 C      3.3898689529      1.4616020394      0.9168890373
 C      3.7657797645      0.0875440443      1.4629102823
 C      2.6403411933     -0.9698732987      1.5653439638
 C      3.7495902581     -1.0778570899      0.5110871927
 C      3.5132670795     -1.0948006432     -0.9368868078
 C      2.5929120377     -0.3403777174     -1.5097379767
 C      1.1977624024     -0.8366481556      1.2373498911
 C      0.7338470323     -0.2141381851      0.1815671809
 C     -0.7471940615      0.0036353233     -0.0140944197
 C     -1.2921984691     -0.2319626651     -1.3124793373
 C     -2.5748054769      0.2489587990     -1.8628706428
 C     -3.3746145395      1.4212199033     -1.2809649482
 C     -3.5008543162      1.5838402485      0.0596141910
 C     -2.9962084152      0.6130162728      1.1137156449
 C     -1.5066637452      0.3213462757      1.1109359305
 C     -3.4807567742     -0.7862541240      0.9665059624
 C     -3.4241099128     -1.5016303815     -0.1252427537
 C     -2.8630167693     -1.1480869795     -1.4358369657
 H      0.9415917925      0.9844353989     -1.4568225978
 H      2.1334236671      2.7617642575     -0.2946962502
 H      3.8820511771      2.3165290817      1.3195744227
 H      4.4820774470      0.1862648771      2.2410604508
 H      2.8362544607     -1.6610888467      2.3453897916
 H      4.6286597354     -1.6105519989      0.8541022103
 H      4.0683764191     -1.7862141351     -1.5448131273
 H      2.4216903785     -0.4091890470     -2.5754662301
 H      0.4753496979     -1.3059468549      1.8629076625
 H     -0.4976067156     -0.3733475106     -2.0361229259
 H     -2.6682758657      0.3366723162     -2.9344306125
 H     -3.6353200387      2.2048881156     -1.9572178664
 H     -3.9041731348      2.5698780342      0.2600352201
 H     -3.2650345398      1.1101690107      2.0232785027
 H     -1.0463170403      0.2842161184      2.0626918498
 H     -3.7567669916     -1.2576787761      1.8680745677
 H     -3.7408356283     -2.5077427980     -0.2312532147
 H     -2.9744918104     -1.8767172994     -2.1930125293
38
# ORCA AIMD Position Step 13, t=6.50 fs, E_Pot=-772.10213568 Hartree, Unit is Angstrom
 C      1.6675889603      0.6234472823     -0.7460958398
 C      2.4147194267      1.7759988794      0.0555192129
 C      3.3937285685      1.4604116525      0.9168542997
 C      3.7690359995      0.0853521206      1.4640776670
 C      2.6389132343     -0.9691729694      1.5633694888
 C      3.7475452740     -1.0756429817      0.5100535209
 C      3.5147078596     -1.0973730113     -0.9382800119
 C      2.5969461596     -0.3435026649     -1.5083722968
 C      1.1951373102     -0.8372080201      1.2375253994
 C      0.7357634274     -0.2206286534      0.1783345513