38
# ORCA AIMD Position Step 0, t=0.00 fs, E_Pot=-772.16467631 Hartree, Unit is Angstrom
 C      1.6267180073      0.6500040029     -0.7524980034
 C      2.4220630108      1.7255290077     -0.0331510001
 C      3.3438980150      1.4769040066      0.9243740041
 C      3.7055860166      0.1442580006      1.4359000064
 C      2.6601140119     -0.9768880044      1.5923920071
 C      3.7752550169     -1.1009440049      0.5343220024
 C      3.4914700156     -1.0559570047     -0.9106560041
 C      2.5437130114     -0.2948870013     -1.5043950067
 C      1.2323630055     -0.8149390036      1.2544610056
 C      0.6986580031     -0.0992200004      0.2197710010
 C     -0.7702770034      0.0232440001     -0.0317390001
 C     -1.1840790053      0.0149310001     -1.3441350060
 C     -2.6016500117      0.1945420009     -1.8341270082
 C     -3.3248010149      1.4068530063     -1.2826800057
 C     -3.5261280158      1.6356680073      0.0272110001
 C     -3.0703000138      0.7424820033      1.1113590050
 C     -1.7011040076      0.0854930004      1.1115490050
 C     -3.1444980141     -0.7602420034      1.0362550046
 C     -3.4054050153     -1.5462730069     -0.1699950008
 C     -3.1524990141     -1.1601710052     -1.4525780065
 H      0.9814200044      1.1580480052     -1.4891770067
 H      2.2344880100      2.7727360124     -0.3251610015
 H      3.8763880174      2.3296890104      1.3785160062
 H      4.4711040200      0.1547890007      2.2274270100
 H      2.8355400127     -1.6083770072      2.4773180111
 H      4.5783310205     -1.7997150081      0.8156880037
 H      4.1110470184     -1.7137570077     -1.5427480069
 H      2.4254950109     -0.3569370016     -2.6001110116
 H      0.5393290024     -1.3631090061      1.9132160086
 H     -0.4627000021     -0.3230590014     -2.1058610094
 H     -2.5845550116      0.2829010013     -2.9381370132
 H     -3.6901360165      2.1555080097     -2.0058150090
 H     -4.0483220181      2.5511800114      0.3537690016
 H     -3.3314690149      1.1024130049      2.1179040095
 H     -1.1898130053      0.1298050006      2.0881930094
 H     -3.4889530156     -1.2492940056      1.9645800088
 H     -3.7117930166     -2.5932550116     -0.0120510001
 H     -3.1644990142     -1.9199520086     -2.2491900101
38
# ORCA AIMD Position Step 1, t=0.50 fs, E_Pot=-772.16168743 Hartree, Unit is Angstrom
 C      1.6308824078      0.6484167648     -0.7511113203
 C      2.4220680984      1.7314197794     -0.0259030485
 C      3.3486260962      1.4753521155      0.9243352276
 C      3.7113313296      0.1383629274      1.4387497063
 C      2.6574455211     -0.9754339349      1.5901538974
 C      3.7728900704     -1.0993325792      0.5325074037
 C      3.4939014555     -1.0597834444     -0.9124071993
 C      2.5476096513     -0.2985741596     -1.5051990870
 C      1.2290077086     -0.8149101270      1.2541564784
 C      0.7007703916     -0.1073311080      0.2178565807
 C     -0.7675088157      0.0205593175     -0.0354098166
 C     -1.1823546412      0.0109444244     -1.3434599130
 C     -2.5961890719      0.1911553897     -1.8337932854
 C     -3.3284084594      1.4049691342     -1.2847852939
 C     -3.5250784283      1.6335361561      0.0299374260
 C     -3.0673508038      0.7388129155      1.1106453340
 C     -1.6994084307      0.0829964911      1.1116462317
 C     -3.1446982702     -0.7590953342      1.0308916457
 C     -3.4054865552     -1.5414698963     -0.1660562618
 C     -3.1499363687     -1.1623128041     -1.4541709383
 H      0.9666863051      1.1462088696     -1.4950364621
 H      2.2252776557      2.7690443301     -0.3242904841
 H      3.8803777460      2.3373641761      1.3762130674
 H      4.4791604241      0.1615216623      2.2372198348
 H      2.8379450637     -1.6172637572      2.4724024392
 H      4.5818966340     -1.7772714082      0.8204470353
 H      4.1072104008     -1.7199073134     -1.5439076528
 H      2.4252381028     -0.3604475270     -2.5942771803
 H      0.5271255304     -1.3600456192      1.9137872352
 H     -0.4559828458     -0.3080335219     -2.0981080185
 H     -2.5945008538      0.2834839539     -2.9354804919
 H     -3.6871365566      2.1651309321     -2.0140300521
 H     -4.0374714124      2.5589902217      0.3359942672
 H     -3.3333457925      1.1219579253      2.1296534706
 H     -1.1823552448      0.1244676568      2.1006528891
 H     -3.4962646767     -1.2550965337      1.9775730164
 H     -3.7198679284     -2.6000107771     -0.0317417426
 H     -3.1721064365     -1.9283742980     -2.2556549382
38
# ORCA AIMD Position Step 2, t=1.00 fs, E_Pot=-772.15673593 Hartree, Unit is Angstrom
 C      1.6349778292      0.6468563445     -0.7497731565
 C      2.4221491184      1.7372469307     -0.0185864736
 C      3.3532855823      1.4738790714      0.9242361811
 C      3.7170759447      0.1324910269      1.4416212394
 C      2.6548509306     -0.9740213430      1.5879629294
 C      3.7705281569     -1.0977068563      0.5307471445
 C      3.4962413122     -1.0635361448     -0.9142330423
 C      2.5515967019     -0.3023341419     -1.5059349090
 C      1.2255443357     -0.8148402922      1.2537887090
 C      0.7029537766     -0.1154818612      0.2160369565
 C     -0.7648168555      0.0178608136     -0.0391795129
 C     -1.1805531829      0.0069952125     -1.3426661098
 C     -2.5907495320      0.1877498746     -1.8334804151
 C     -3.3320388685      1.4031498862     -1.2867813723
 C     -3.5240155547      1.6314229710      0.0324735066
 C     -3.0644339879      0.7352353285      1.1100633957
 C     -1.6977172013      0.0804256971      1.1118228427
 C     -3.1448191701     -0.7579847876      1.0257337097
 C     -3.4055338393     -1.5367343355     -0.1623645658
 C     -3.1474418753     -1.1645610096     -1.4556321052
 H      0.9533328380      1.1336778350     -1.4995319743
 H      2.2163513767      2.7643856011     -0.3230123170
 H      3.8835318507      2.3435452518      1.3732474683
 H      4.4858194886      0.1679798688      2.2456059731
 H      2.8399322510     -1.6251143911      2.4660702305
 H      4.5846102247     -1.7544896632      0.8249136281
 H      4.1027378560     -1.7253287519     -1.5443315987
 H      2.4250984511     -0.3639250664     -2.5874334616
 H      0.5159955987     -1.3561886932      1.9134525279
 H     -0.4496097492     -0.2920997517     -2.0899385203
 H     -2.6042317144      0.2838186478     -2.9316312616
 H     -3.6834442612      2.1731188466     -2.0209516881
 H     -4.0260750796      2.5656879386      0.3178748183
 H     -3.3346081783      1.1405530746      2.1389393202
 H     -1.1764203091      0.1184594581      2.1109424803
 H     -3.5019047180     -1.2594759801      1.9882187697
 H     -3.7272513049     -2.6047124047     -0.0511527902
 H     -3.1802862452     -1.9355121376     -2.2607296660
38
# ORCA AIMD Position Step 3, t=1.50 fs, E_Pot=-772.15091980 Hartree, Unit is Angstrom
 C      1.6389758956      0.6453279739     -0.7485044909
 C      2.4222892815      1.7429334762     -0.0112208105
 C      3.3578919734      1.4725063059      0.9241010397
 C      3.7228090184      0.1267041748      1.4445124543
 C      2.6523454020     -0.9726775669      1.5858443776
 C      3.7681612029     -1.0960442908      0.5290423793
 C      3.4984843968     -1.0672051512     -0.9161223885
 C      2.5556665626     -0.3061485216     -1.5065597292
 C      1.2219764358     -0.8147582827      1.2533933576
 C      0.7051998098     -0.1236383431      0.2142762273
 C     -0.7622059037      0.0151390565     -0.0429970726
 C     -1.1786938451      0.0031047954     -1.3417502943
 C     -2.5853693703      0.1843369199     -1.8331848108
 C     -3.3356799630      1.4014006512     -1.2886587179
 C     -3.5229249030      1.6293243890      0.0347442712
 C     -3.0615762877      0.7318219282      1.1096890605
 C     -1.6959863872      0.0777773303      1.1121114235
 C     -3.1448837466     -0.7569467521      1.0209161397
 C     -3.4055682565     -1.5321439223     -0.1590169937
 C     -3.1450220530     -1.1669314966     -1.4569542634
 H      0.9419147395      1.1203860156     -1.5022489215
 H      2.2077247149      2.7592756318     -0.3213347995
 H      3.8857983167      2.3479415925      1.3695974514
 H      4.4908689788      0.1739689391      2.2523055239
 H      2.8414000013     -1.6317943732      2.4581960434
 H      4.5867958127     -1.7319530386      0.8291478224
 H      4.0978163081     -1.7302005590     -1.5441246596
 H      2.4250269925     -0.3674181205     -2.5801204191
 H      0.5061726561     -1.3514863246      1.9121364690
 H     -0.4432805346     -0.2754972695     -2.0818249523
 H     -2.6135337888      0.2838649831     -2.9268374673
 H     -3.6789420324      2.1790823210     -2.0262246607
 H     -4.0142479528      2.5713541424      0.2997572207
 H     -3.3349854808      1.1575860009      2.1448703989
 H     -1.1723332681      0.1117656970      2.1184085199
 H     -3.5055645802     -1.2620109524      1.9956101180
 H     -3.7337907493     -2.6067839733     -0.0699982476
 H     -3.1889688161     -1.9410528749     -2.2640679427
38
# ORCA AIMD Position Step 4, t=2.00 fs, E_Pot=-772.14524169 Hartree, Unit is Angstrom
 C      1.6428579945      0.6438284716     -0.7473157736
 C      2.4224736111      1.7484009322     -0.0038214446
 C      3.3624575050      1.4712449821      0.9239505060
 C      3.7285121668      0.1210621554      1.4474138142
 C      2.6499406335     -0.9714222769      1.5838125077
 C      3.7657770608     -1.0943223965      0.5273911479
 C      3.5006255229     -1.0707798850     -0.9180590636
 C      2.5598116491     -0.3099981159     -1.5070275870
 C      1.2183151231     -0.8146892036      1.2530020675
 C      0.7074995372     -0.1317673679      0.2125346765
 C     -0.7596782169      0.0123828727     -0.0468103033
 C     -1.1767970494     -0.0007071158     -1.3407109363
 C     -2.5800844322      0.1809247526     -1.8328962024
 C     -3.3393145990      1.3997151223     -1.2904026990
 C     -3.5217902201      1.6272310605      0.0366803699
 C     -3.0587964565      0.7286363268      1.1095734850
 C     -1.6941824867      0.0750453666      1.1125267378
 C     -3.1449048321     -0.7560034077      1.0165475094
 C     -3.4056077601     -1.5277617101     -0.1561081113
 C     -3.1426820682     -1.1694308870     -1.4581242454
 H      0.9328799878      1.1063443789     -1.5028961646
 H      2.1993917171      2.7542725287     -0.3192889615
 H      3.8871956593      2.3503802613      1.3652975521
 H      4.4942093241      0.1793030578      2.2571540941
 H      2.8422728061     -1.6372512170      2.4487651185
 H      4.5888119894     -1.7102457313      0.8332248090
 H      4.0926688501     -1.7347476751     -1.5434351434
 H      2.4249650896     -0.3709799079     -2.5729314309
 H      0.4978001038     -1.3459493093      1.9098418002
 H     -0.4366756706     -0.2584501558     -2.0742440974
 H     -2.6222050219      0.2835917094     -2.9214119066
 H     -3.6735759896      2.1827589073     -2.0296153428
 H     -4.0021231187      2.5761238410      0.2819841073
 H     -3.3342818358      1.1725519624      2.1468438605
 H     -1.1703044410      0.1043829265      2.1226175042
 H     -3.5070401446     -1.2624277709      1.9991223046
 H     -3.7393850660     -2.6058237924     -0.0879792684
 H     -3.1980856453     -1.9447928922     -2.2654421249
38
# ORCA AIMD Position Step 5, t=2.50 fs, E_Pot=-772.14043912 Hartree, Unit is Angstrom
 C      1.6466158751      0.6423468207     -0.7462067796
 C      2.4226886969      1.7535742968      0.0035999422
 C      3.3669897577      1.4700962538      0.9237998732
 C      3.7341586744      0.1156210351      1.4503072452
 C      2.6476445239     -0.9702669955      1.5818706721
 C      3.7633632581     -1.0925212268      0.5257904356
 C      3.5026597109     -1.0742490110     -0.9200228500
 C      2.5640244961     -0.3138635574     -1.5072945489
 C      1.2145788058     -0.8146526202      1.2526413648
 C      0.7098428811     -0.1398382913      0.2107723070
 C     -0.7572341505      0.0095804471     -0.0505675088
 C     -1.1748818725     -0.0044234091     -1.3395501441
 C     -2.5749271235      0.1775189481     -1.8325996926
 C     -3.3429215729      1.3980750902     -1.2919936026
 C     -3.5205946322      1.6251302895      0.0382198748
 C     -3.0561061195      0.7257322070      1.1097443958
 C     -1.6922824978      0.0722221676      1.1130658683
 C     -3.1448864621     -0.7551649726      1.0127101761
 C     -3.4056663214     -1.5236341483     -0.1537248983
 C     -3.1404255909     -1.1720551981     -1.4591235501
 H      0.9265473087      1.0916465499     -1.5013219130
 H      2.1913306983      2.7499282966     -0.3169162787
 H      3.8878127899      2.3508113543      1.3604378962
 H      4.4958553915      0.1838126996      2.2601073607
 H      2.8425044433     -1.6415198804      2.4378734277
 H      4.5910081769     -1.6899157822      0.8372201239
 H      4.0875365483     -1.7392261346     -1.5424387725
 H      2.4248465838     -0.3746643550     -2.5664553097
 H      0.4909357880     -1.3396438382      1.9066449198
 H     -0.4294972518     -0.2411444732     -2.0676346215
 H     -2.6300595658      0.2829766949     -2.9157123631
 H     -3.6673514798      2.1840219372     -2.0310171557
 H     -3.9898392619      2.5801733495      0.2648859416
 H     -3.3323727634      1.1850587598      2.1445284980
 H     -1.1704315707      0.0963149288      2.1233539930
 H     -3.5062216267     -1.2605869853      1.9983919226
 H     -3.7439931264     -2.6016186281     -0.1047938224
 H     -3.2075772084     -1.9466481171     -2.2647541573
38
# ORCA AIMD Position Step 6, t=3.00 fs, E_Pot=-772.13689526 Hartree, Unit is Angstrom
 C      1.6502495382      0.6408658508     -0.7451673294
 C      2.4229214514      1.7583809626      0.0110287886
 C      3.3714897181      1.4690516870      0.9236610040
 C      3.7397108669      0.1104369614      1.4531650597
 C      2.6454627892     -0.9692160059      1.5800129427
 C      3.7609119414     -1.0906273944      0.5242379086
 C      3.5045831874     -1.0776009768     -0.9219896358
 C      2.5682937052     -0.3177225783     -1.5073220000
 C      1.2107960792     -0.8146639039      1.2523329509
 C      0.7122182840     -0.1478162992      0.2089474674
 C     -0.7548730540      0.0067199301     -0.0542147324
 C     -1.1729632096     -0.0080282281     -1.3382788596
 C     -2.5699305322      0.1741238083     -1.8322768314
 C     -3.3464730114      1.3964515018     -1.2934058162
 C     -3.5193214593      1.6230077314      0.0393068925
 C     -3.0535115917      0.7231556410      1.1102084195
 C     -1.6902755140      0.0692993523      1.1137083834
 C     -3.1448239929     -0.7544310923      1.0094642843
 C     -3.4057531701     -1.5197929689     -0.1519496841
 C     -3.1382557899     -1.1747889560     -1.4599271694
 H      0.9231208573      1.0764634485     -1.4974998746
 H      2.1835223579      2.7467468167     -0.3142552984
 H      3.8878070424      2.3493060352      1.3551660472
 H      4.4959336038      0.1873425842      2.2612381170
 H      2.8420780921     -1.6447187525      2.4257305354
 H      4.5936828427     -1.6714603655      0.8411916808
 H      4.0826705702     -1.7439036924     -1.5413257328
 H      2.4246081669     -0.3785216094     -2.5612346872
 H      0.4855448665     -1.3327027325      1.9027055798
 H     -0.4215136611     -0.2237348597     -2.0623614192
 H     -2.6369227194      0.2820050704     -2.9101232633
 H     -3.6603336973      2.1828746394     -2.0304454054
 H     -3.9775427212      2.5836980784      0.2487840685
 H     -3.3291967871      1.1948139971      2.1378337901
 H     -1.1727012439      0.0875764800      2.1206175395
 H     -3.5030856265     -1.2564723920      1.9932980815
 H     -3.7476299328     -2.5941460608     -0.1201347177
 H     -3.2173880886     -1.9466469633     -2.2620284707
38
# ORCA AIMD Position Step 7, t=3.50 fs, E_Pot=-772.13457592 Hartree, Unit is Angstrom
 C      1.6537674987      0.6393630383     -0.7441773429
 C      2.4231585717      1.7627556759      0.0184459810
 C      3.3759510484      1.4680937061      0.9235417748
 C      3.7451195565      0.1055649935      1.4559492672
 C      2.6433990365     -0.9682662318      1.5782247802
 C      3.7584241281     -1.0886362812      0.5227344326
 C      3.5063941894     -1.0808247080     -0.9239329339
 C      2.5726032407     -0.3215504336     -1.5070829431
 C      1.2070054195     -0.8147332950      1.2520929785
 C      0.7146120736     -0.1556633908      0.2070203037
 C     -0.7525936193      0.0037904886     -0.0576963087
 C     -1.1710489175     -0.0115068719     -1.3369190144
 C     -2.5651285600      0.1707433880     -1.8319084123
 C     -3.3499347479      1.3948048501     -1.2946084355
 C     -3.5179554540      1.6208497856      0.0398934086
 C     -3.0510143565      0.7209437576      1.1109512921
 C     -1.6881635261      0.0662690461      1.1144157698
 C     -3.1447047644     -0.7537916788      1.0068462554
 C     -3.4058722204     -1.5162537663     -0.1508555391
 C     -3.1361752717     -1.1776045566     -1.4605048059
 H      0.9226696943      1.0610461213     -1.4915437955
 H      2.1759612428      2.7451321749     -0.3113266448
 H      3.8873994172      2.3460551223      1.3496829267
 H      4.4946785462      0.1897579745      2.2607350698
 H      2.8410079969     -1.6470490899      2.4126546243
 H      4.5970354735     -1.6552944480      0.8451616996
 H      4.0783106375     -1.7490367950     -1.5402798046
 H      2.4241965659     -0.3825927737     -2.5576991108
 H      0.4815080639     -1.3253165019      1.8982583978
 H     -0.4125991837     -0.2063378250     -2.0586798802
 H     -2.6426331072      0.2806685272     -2.9050293205
 H     -3.6526449850      2.1794569002     -2.0280417542
 H     -3.9653778851      2.5868948359      0.2339841397
 H     -3.3247562888      1.2016329873      2.1269099792
 H     -1.1769840758      0.0781919447      2.1146314472
 H     -3.4976961179     -1.2501923801      1.9839666698
 H     -3.7503737074     -2.5835876988     -0.1336990014
 H     -3.2274718083     -1.9449347154     -2.2574175725
38
# ORCA AIMD Position Step 8, t=4.00 fs, E_Pot=-772.13302606 Hartree, Unit is Angstrom
 C      1.6571870548      0.6378113989     -0.7432067629
 C      2.4233851408      1.7666441129      0.0258254523
 C      3.3803601481      1.4671963442      0.9234465524
 C      3.7503248690      0.1010585076      1.4586121031
 C      2.6414548217     -0.9674079956      1.5764845529
 C      3.7559128739     -1.0865539805      0.5212849979
 C      3.5080948743     -1.0839117639     -0.9258254990
 C      2.5769308148     -0.3253194711     -1.5065666274
 C      1.2032548238     -0.8148660614      1.2519319685
 C      0.7170086935     -0.1633377229      0.2049532357
 C     -0.7503940229      0.0007827209     -0.0609558140
 C     -1.1691376631     -0.0148455413     -1.3355054712
 C     -2.5605557670      0.1673819035     -1.8314767895
 C     -3.3532665585      1.3930856666     -1.2955658088
 C     -3.5164837708      1.6186455339      0.0399406655
 C     -3.0486110059      0.7191234996      1.1119369620
 C     -1.6859621430      0.0631245126      1.1151309461
 C     -3.1445079461     -0.7532268681      1.0048656862
 C     -3.4060216322     -1.5130149708     -0.1505033102
 C     -3.1341858075     -1.1804622320     -1.4608218679
 H      0.9251194749      1.0457200872     -1.4837092233
 H      2.1686691954      2.7453423094     -0.3081178515
 H      3.8868696058      2.3413651958      1.3442387318
 H      4.4924295079      0.1909497244      2.2589013455
 H      2.8393393103     -1.6487887910      2.3990619329
 H      4.6011317174     -1.6417298784      0.8491038076
 H      4.0746653682     -1.7548459657     -1.5394573076
 H      2.4235778823     -0.3869060641     -2.5561126612
 H      0.4786231241     -1.3177301673      1.8936094690
 H     -0.4027664052     -0.1890349741     -2.0567070096
 H     -2.6470439801      0.2789633733     -2.9007850202
 H     -3.6444620617      2.1740482089     -2.0240758253
 H     -3.9534789269      2.5899398524      0.2207687990
 H     -3.3191210358      1.2054522411      2.1121585056
 H     -1.1830286624      0.0681942007      2.1058552070
 H     -3.4902129470     -1.2419912126      1.9707939183
 H     -3.7523693941     -2.5703367949     -0.1451980484
 H     -3.2377933919     -1.9417729599     -2.2512015567
38
# ORCA AIMD Position Step 9, t=4.50 fs, E_Pot=-772.13146133 Hartree, Unit is Angstrom
 C      1.6605356443      0.6361799290     -0.7422153314
 C      2.4235841291      1.7700069767      0.0331351210
 C      3.3846980075      1.4663263608      0.9233768138
 C      3.7552592319      0.0969666696      1.4610979463
 C      2.6396294464     -0.9666258408      1.5747649822
 C      3.7534041521     -1.0843971708      0.5198991444
 C      3.5096931815     -1.0868590118     -0.9276416769
 C      2.5812484609     -0.3290005433     -1.5057818661
 C      1.1995993534     -0.8150628230      1.2518548056
 C      0.7193914842     -0.1707963241      0.2027121731
 C     -0.7482713861     -0.0023116790     -0.0639382217
 C     -1.1672175814     -0.0180314882     -1.3340855175
 C     -2.5562459528      0.1640433207     -1.8309683645
 C     -3.3564238099      1.3912351462     -1.2962391706
 C     -3.5148964799      1.6163880928      0.0394209420
 C     -3.0462921216      0.7177086803      1.1131060958
 C     -1.6837005730      0.0598600610      1.1157782649
 C     -3.1442040633     -0.7527060622      1.0035004696
 C     -3.4061934546     -1.5100559768     -0.1509379117
 C     -3.1322875301     -1.1833117196     -1.4608414746
 H      0.9302404050      1.0308767899     -1.4743967200
 H      2.1617027897      2.7474581737     -0.3045728965
 H      3.8865437310      2.3356427604      1.3391211455
 H      4.4896165133      0.1908390477      2.2561421531
 H      2.8371450209     -1.6502785078      2.3854420954
 H      4.6058846451     -1.6309602200      0.8529372371
 H      4.0718910885     -1.7614919858     -1.5389661903
 H      2.4227448571     -0.3914744480     -2.5565352618
 H      0.4766164068     -1.3102294325      1.8891210682
 H     -0.3921758407     -0.1718778423     -2.0564116240
 H     -2.6500258829      0.2768880405     -2.8976817007
 H     -3.6360082485      2.1670635681     -2.0189408272
 H     -3.9419591774      2.5929695343      0.2093863408
 H     -3.3124337669      1.2063520681      2.0942506137
 H     -1.1904586165      0.0576198721      2.0949916206
 H     -3.4809018400     -1.2322637244      1.9544771042
 H     -3.7538326109     -2.5549993622     -0.1543720611
 H     -3.2483350717     -1.9375312369     -2.2437793101
38
# ORCA AIMD Position Step 10, t=5.00 fs, E_Pot=-772.12899134 Hartree, Unit is Angstrom
 C      1.6638522913      0.6344338563     -0.7411526589
 C      2.4237363734      1.7728225156      0.0403399788
 C      3.3889434149      1.4654452336      0.9233321179
 C      3.7598521913      0.0933316115      1.4633466908
 C      2.6379197044     -0.9659001774      1.5730352377
 C      3.7509352584     -1.0821913486      0.5185901956
 C      3.5112044521     -1.0896713830     -0.9293597910
 C      2.5855244026     -0.3325650578     -1.5047574359
 C      1.1960971406     -0.8153204143      1.2518613298
 C      0.7217440181     -0.1779991515      0.2002669931
 C     -0.7462209744     -0.0055009293     -0.0665927655
 C     -1.1652663711     -0.0210533676     -1.3327160879
 C     -2.5522298724      0.1607302938     -1.8303755618
 C     -3.3593600110      1.3891862335     -1.2965889582
 C     -3.5131864974      1.6140751825      0.0383186850
 C     -3.0440406548      0.7166968677      1.1143746815
 C     -1.6814202165      0.0564702422      1.1162649494
 C     -3.1437543372     -0.7521866913      1.0026920800
 C     -3.4063737396     -1.5073360715     -0.1521856285
 C     -3.1304779541     -1.1860954671     -1.4605270680
 H      0.9376458406      1.0169589370     -1.4641449798
 H      2.1551541051      2.7513766327     -0.3005882389
 H      3.8867757342      2.3293646695      1.3346374768
 H      4.4867351740      0.1893791750      2.2529400153
 H      2.8345187897     -1.6518975006      2.3723194872
 H      4.6110603304     -1.6230592229      0.8565310129
 H      4.0700752896     -1.7690584493     -1.5388498851
 H      2.4217202722     -0.3962958494     -2.5588133769
 H      0.4751633950     -1.3031199491      1.8851879492
 H     -0.3811212171     -0.1548943017     -2.0576254126
 H     -2.6514687109      0.2744398966     -2.8959183195
 H     -3.6275398516      2.1590356478     -2.0131372003
 H     -3.9309006833      2.5960650714      0.2000394512
 H     -3.3049149410      1.2045805020      2.0741432090
 H     -1.1987809821      0.0465009355      2.0829743485
 H     -3.4701409141     -1.2215677259      1.9360408136
 H     -3.7550494682     -2.5383779933     -0.1610038118
 H     -3.2591027440     -1.9326670433     -2.2356469190
38
# ORCA AIMD Position Step 11, t=5.50 fs, E_Pot=-772.12496676 Hartree, Unit is Angstrom
 C      1.6671881693      0.6325349675     -0.7399590521
 C      2.4238211515      1.7750863446      0.0474062983
 C      3.3930768305      1.4645121588      0.9233115147
 C      3.7640359757      0.0901864397      1.4652980494
 C      2.6363200063     -0.9652098436      1.5712637508
 C      3.7485513265     -1.0799679118      0.5173737295
 C      3.5126522142     -1.0923637700     -0.9309639059
 C      2.5897257170     -0.3359870968     -1.5035393554
 C      1.1928046149     -0.8156333585      1.2519476857
 C      0.7240515151     -0.1849131551      0.1975914815
 C     -0.7442354864     -0.0087945006     -0.0688755509
 C     -1.1632528177     -0.0239014418     -1.3314594128
 C     -2.5485330987      0.1574429197     -1.8296979678
 C     -3.3620295881      1.3868655483     -1.2965777762
 C     -3.5113489688      1.6117089988      0.0366305505
 C     -3.0418304822      0.7160672067      1.1156335660
 C     -1.6791716672      0.0529486629      1.1164847450
 C     -3.1431102597     -0.7516134193      1.0023433646
 C     -3.4065433383     -1.5047955227     -0.1542533661
 C     -3.1287512868     -1.1887530674     -1.4598455643
 H      0.9468075031      1.0044418325     -1.4536106092
 H      2.1491448985      2.7568299125     -0.2960166778
 H      3.8879226191      2.3230343548      1.3310919174
 H      4.4843089579      0.1865518172      2.2498153039
 H      2.8315637106     -1.6540293981      2.3602043931
 H      4.6163055277     -1.6179946331      0.8597166364
 H      4.0692288635     -1.7775443108     -1.5390796221
 H      2.4205553155     -0.4013555673     -2.5626035620
 H      0.4739195613     -1.2967011961      1.8822061952
 H     -0.3699937758     -0.1380957445     -2.0600732882
 H     -2.6512817278      0.2716119228     -2.8955822465
 H     -3.6193273274      2.1505792461     -2.0072407326
 H     -3.9203469880      2.5992431874      0.1928780259
 H     -3.2968637602      1.2005699006      2.0530818401
 H     -1.2074117288      0.0348544441      2.0709239377
 H     -3.4584176006     -1.2106262775      1.9168421746
 H     -3.7563693725     -2.5214326488     -0.1649265944
 H     -3.2701304990     -1.9276917215     -2.2273611554
38
# ORCA AIMD Position Step 12, t=6.00 fs, E_Pot=-772.11936703 Hartree, Unit is Angstrom
 C      1.6706054210      0.6304423164     -0.7385675670
 C      2.4238172052      1.7768084817      0.0543057507
 C      3.3970841977      1.4634878893      0.9233153475
 C      3.7677508367      0.0875547948      1.4668962100
 C      2.6348230145     -0.9645354219      1.5694215580
 C      3.7463010331     -1.0777609480      0.5162657424
 C      3.5140678887     -1.0949615446     -0.9324445215
 C      2.5938210837     -0.3392450244     -1.5021858074
 C      1.1897718433     -0.8159958167      1.2521083810
 C      0.7263019663     -0.1915151942      0.1946628535
 C     -0.7423046800     -0.0122044389     -0.0707512731
 C     -1.1611392846     -0.0265674770     -1.3303782179
 C     -2.5451746595      0.1541777093     -1.8289424587
 C     -3.3643902977      1.3841963560     -1.2961740521
 C     -3.5093802793      1.6092955853      0.0343644114
 C     -3.0396258389      0.7157803299      1.1167500747
 C     -1.6770100294      0.0492867067      1.1163245179
 C     -3.1422141496     -0.7509189235      1.0023212728
 C     -3.4066796024     -1.5023598337     -0.1571299573
 C     -3.1270983625     -1.1912263528     -1.4587710173
 H      0.9570917920      0.9938116150     -1.4435316920
 H      2.1438160965      2.7634258379     -0.2906776545
 H      3.8903159616      2.3171282553      1.3287606594
 H      4.4828416647      0.1823583227      2.2472746405
 H      2.8283785596     -1.6570214358      2.3495413272
 H      4.6211890919     -1.6156540295      0.8623055679
 H      4.0692889508     -1.7868678472     -1.5395568418
 H      2.4193234221     -0.4066301044     -2.5674219395
 H      0.4725587482     -1.2912386706      1.8805383848
 H     -0.3592355415     -0.1214836473     -2.0634150193
 H     -2.6493914298      0.2683899460     -2.8966439027
 H     -3.6116331813      2.1423381085     -2.0018549661
 H     -3.9103009862      2.6024541782      0.1879980714
 H     -3.2886518254      1.1949360613      2.0325776837
 H     -1.2157217923      0.0226732116      2.0600634324
 H     -3.4463088454     -1.2003090973      1.8985326700
 H     -3.7581883004     -2.5052148047     -0.1660235662
 H     -3.2814804989     -1.9231238401     -2.2194900887
38
# ORCA AIMD Position Step 13, t=6.50 fs, E_Pot=-772.11306050 Hartree, Unit is Angstrom
 C      1.6741733348      0.6281137847     -0.7369077777
 C      2.4237037659      1.7780083447      0.0610181340
 C      3.4009599949      1.4623389625      0.9233471772
 C      3.7709494363      0.0854521110      1.4680943429
 C      2.6334206843     -0.9638628861      1.5674858718
 C      3.7442325954     -1.0756045375      0.5152808851
 C      3.5154895154     -1.0974995687     -0.9337981571
 C      2.5977828414     -0.3423220869     -1.5007610094
 C      1.1870387794     -0.8164035940      1.2523387131
 C      0.7284867700     -0.1977929491      0.1914610958