38
# ORCA AIMD Force Step 0, t=0.00 fs, E_Pot=-772.16467631 Hartree, Unit is Hartree/Angstrom
 C      0.0000000000      0.0000000000      0.0000000000
 C      0.0000000000      0.0000000000      0.0000000000
 C      0.0000000000      0.0000000000      0.0000000000
 C      0.0000000000      0.0000000000      0.0000000000
 C      0.0000000000      0.0000000000      0.0000000000
 C      0.0000000000      0.0000000000      0.0000000000
 C      0.0000000000      0.0000000000      0.0000000000
 C      0.0000000000      0.0000000000      0.0000000000
 C      0.0000000000      0.0000000000      0.0000000000
 C      0.0000000000      0.0000000000      0.0000000000
 C      0.0000000000      0.0000000000      0.0000000000
 C      0.0000000000      0.0000000000      0.0000000000
 C      0.0000000000      0.0000000000      0.0000000000
 C      0.0000000000      0.0000000000      0.0000000000
 C      0.0000000000      0.0000000000      0.0000000000
 C      0.0000000000      0.0000000000      0.0000000000
 C      0.0000000000      0.0000000000      0.0000000000
 C      0.0000000000      0.0000000000      0.0000000000
 C      0.0000000000      0.0000000000      0.0000000000
 C      0.0000000000      0.0000000000      0.0000000000
 H      0.0000000000      0.0000000000      0.0000000000
 H      0.0000000000      0.0000000000      0.0000000000
 H      0.0000000000      0.0000000000      0.0000000000
 H      0.0000000000      0.0000000000      0.0000000000
 H      0.0000000000      0.0000000000      0.0000000000
 H      0.0000000000      0.0000000000      0.0000000000
 H      0.0000000000      0.0000000000      0.0000000000
 H      0.0000000000      0.0000000000      0.0000000000
 H      0.0000000000      0.0000000000      0.0000000000
 H      0.0000000000      0.0000000000      0.0000000000
 H      0.0000000000      0.0000000000      0.0000000000
 H      0.0000000000      0.0000000000      0.0000000000
 H      0.0000000000      0.0000000000      0.0000000000
 H      0.0000000000      0.0000000000      0.0000000000
 H      0.0000000000      0.0000000000      0.0000000000
 H      0.0000000000      0.0000000000      0.0000000000
 H      0.0000000000      0.0000000000      0.0000000000
 H      0.0000000000      0.0000000000      0.0000000000
38
# ORCA AIMD Force Step 1, t=0.50 fs, E_Pot=-772.16168743 Hartree, Unit is Hartree/Angstrom
 C     -0.0130908384      0.0050858808     -0.0090330406
 C      0.0138899998     -0.0123063397      0.0117314785
 C     -0.0130845215      0.0145997274     -0.0110209567
 C     -0.0007792593      0.0049076503      0.0036708187
 C      0.0138214503     -0.0077525431      0.0088776250
 C      0.0008230655      0.0024326796      0.0101462711
 C     -0.0170293418      0.0139233142     -0.0134569303
 C      0.0160972000     -0.0129037543      0.0125778983
 C     -0.0193901282      0.0074893354     -0.0115345499
 C      0.0127480272     -0.0063326197      0.0175584446
 C     -0.0142584855     -0.0022239152     -0.0176720945
 C      0.0139075272      0.0072871812      0.0216394411
 C     -0.0045340733     -0.0030740812     -0.0038524802
 C     -0.0037918387      0.0120355419      0.0202168186
 C      0.0023114288      0.0036564138     -0.0351296692
 C     -0.0062604242      0.0171546622      0.0241791775
 C     -0.0009876131     -0.0133059926      0.0145109903
 C      0.0145395948     -0.0067380868      0.0381868959
 C      0.0062757653     -0.0129018371     -0.0456390398
 C     -0.0127578882     -0.0192223705      0.0242848187
 H      0.0213299805     -0.0105095624      0.0209954419
 H      0.0044488750     -0.0148112587      0.0062500778
 H     -0.0128667272     -0.0230107747     -0.0101514445
 H     -0.0215290621     -0.0042775984     -0.0216890876
 H     -0.0064380628      0.0159913534     -0.0217018560
 H     -0.0131144507      0.0049776932     -0.0045349054
 H     -0.0097264326      0.0112483302      0.0113057291
 H      0.0018026017      0.0005398224      0.0154485745
 H      0.0165974713      0.0121534997     -0.0139136115
 H     -0.0053460415      0.0138013458      0.0063205543
 H      0.0033951257     -0.0038168919      0.0182855492
 H      0.0106080742     -0.0251927313      0.0199349708
 H      0.0082748948     -0.0171536747     -0.0051229851
 H      0.0094501933     -0.0147671999     -0.0379339445
 H     -0.0234498537     -0.0102483693     -0.0334375249
 H      0.0257328076      0.0219028117     -0.0361594297
 H      0.0106935152      0.0316000535      0.0044813774
 H     -0.0087150425      0.0197994276      0.0214043121
38
# ORCA AIMD Force Step 2, t=1.00 fs, E_Pot=-772.15673593 Hartree, Unit is Hartree/Angstrom
 C     -0.0193554420      0.0064526749     -0.0132136306
 C      0.0107804649     -0.0279208908      0.0061880941
 C     -0.0114794744      0.0188916193     -0.0065604446
 C     -0.0042965531      0.0177820390      0.0025047255
 C      0.0172681486     -0.0131172106      0.0140716636
 C     -0.0000222984      0.0061159464      0.0108143809
 C     -0.0185806009      0.0167277483     -0.0109133264
 C      0.0136198749     -0.0085125009      0.0205711699
 C     -0.0177890866      0.0021989377     -0.0049019713
 C      0.0106209268      0.0020555385      0.0114586553
 C     -0.0158330371     -0.0032234156     -0.0073143842
 C      0.0098945679      0.0122510221      0.0220016207
 C     -0.0129249759     -0.0000635696     -0.0032753008
 C     -0.0005713039      0.0134908624      0.0224641712
 C      0.0046732352      0.0034738737     -0.0494650226
 C     -0.0119166390      0.0313751060      0.0381712814
 C      0.0065922713     -0.0132016421      0.0204008005
 C      0.0103419132     -0.0136777166      0.0641822128
 C      0.0023700750     -0.0283355836     -0.0643109687
 C     -0.0145994104     -0.0214971635      0.0259669406
 H      0.0301172682     -0.0112709408      0.0274287465
 H      0.0048816210     -0.0067736873      0.0060856368
 H     -0.0137181100     -0.0275772503     -0.0104049736
 H     -0.0249053640     -0.0074033807     -0.0261420051
 H     -0.0080322142      0.0182098809     -0.0234533347
 H     -0.0081868291     -0.0044882234     -0.0037079409
 H     -0.0067453123      0.0086051435      0.0096920070
 H      0.0010506182     -0.0001269153      0.0069813023
 H      0.0204062045      0.0128467927     -0.0150443127
 H     -0.0008767985      0.0097497357     -0.0011190218
 H      0.0068889210     -0.0044344265      0.0143676699
 H      0.0123073038     -0.0313123100      0.0255134205
 H      0.0062447702     -0.0160385090      0.0006072631
 H      0.0136184722     -0.0245602661     -0.0517625021
 H     -0.0285383240     -0.0103253319     -0.0436450837
 H      0.0305582910      0.0284361553     -0.0502662234
 H      0.0131827174      0.0404981764      0.0092968947
 H     -0.0074516015      0.0247293260      0.0268011769
38
# ORCA AIMD Force Step 3, t=1.50 fs, E_Pot=-772.15091980 Hartree, Unit is Hartree/Angstrom
 C     -0.0240674390      0.0063763741     -0.0155174058
 C      0.0079647959     -0.0441203236      0.0008336636
 C     -0.0107900567      0.0213441928     -0.0027134154
 C     -0.0096071590      0.0306313679     -0.0002360321
 C      0.0202118302     -0.0171309172      0.0173611771
 C     -0.0014290122      0.0096339924      0.0110083995
 C     -0.0202410720      0.0198675985     -0.0072785998
 C      0.0107980698     -0.0036754487      0.0291172330
 C     -0.0144821703     -0.0024207092      0.0010273509
 C      0.0081834114      0.0109072226      0.0047745879
 C     -0.0170928758     -0.0043209455      0.0035486234
 C      0.0054975831      0.0171480903      0.0219007394
 C     -0.0212775024      0.0026095304     -0.0014912177
 C      0.0038100492      0.0128983269      0.0257124421
 C      0.0072533760      0.0024755883     -0.0627600850
 C     -0.0162856995      0.0440686429      0.0475273511
 C      0.0120971996     -0.0133538504      0.0229366379
 C      0.0079893351     -0.0180432488      0.0854697028
 C     -0.0009040715     -0.0413398521     -0.0825357748
 C     -0.0163288532     -0.0218288510      0.0287469346
 H      0.0372212522     -0.0106863602      0.0318865673
 H      0.0050239606      0.0019477357      0.0055434461
 H     -0.0134582550     -0.0302713014     -0.0097392801
 H     -0.0265017914     -0.0104014052     -0.0287757158
 H     -0.0092075710      0.0191517484     -0.0233823084
 H     -0.0027290384     -0.0140771607     -0.0026662061
 H     -0.0031640683      0.0052718411      0.0073837921
 H      0.0001507897     -0.0008416697     -0.0023447475
 H      0.0228253464      0.0125073110     -0.0149191128
 H      0.0038410604      0.0058081252     -0.0086566935
 H      0.0102327416     -0.0049013788      0.0093922734
 H      0.0129664829     -0.0354121320      0.0291691002
 H      0.0038457927     -0.0140840583      0.0063783141
 H      0.0165902873     -0.0327125755     -0.0610170112
 H     -0.0317935294     -0.0101544221     -0.0503727425
 H      0.0337000843      0.0326181102     -0.0599030821
 H      0.0148822291      0.0465924640      0.0143916249
 H     -0.0061293332      0.0279351231      0.0303055877
38
# ORCA AIMD Force Step 4, t=2.00 fs, E_Pot=-772.14524169 Hartree, Unit is Hartree/Angstrom
 C     -0.0268696445      0.0048816550     -0.0158333478
 C      0.0054116986     -0.0595803788     -0.0039995457
 C     -0.0110184166      0.0219094804      0.0001450020
 C     -0.0165133676      0.0427667914     -0.0045902313
 C      0.0224301604     -0.0196064792      0.0186280874
 C     -0.0028282811      0.0125979490      0.0110062383
 C     -0.0218305667      0.0231411400     -0.0028480391
 C      0.0078715638      0.0012797340      0.0371599796
 C     -0.0097173908     -0.0060036227      0.0060045458
 C      0.0054659842      0.0194082836     -0.0019113558
 C     -0.0179951380     -0.0054503750      0.0143533556
 C      0.0012984362      0.0215754984      0.0210292924
 C     -0.0290119762      0.0048579729      0.0011288781
 C      0.0089850306      0.0101270644      0.0298183108
 C      0.0098825888      0.0009102617     -0.0744555239
 C     -0.0193399968      0.0548073557      0.0523940865
 C      0.0155766163     -0.0136855991      0.0221400485
 C      0.0072214387     -0.0201626042      0.1016675060
 C     -0.0034342243     -0.0512085948     -0.0990591040
 C     -0.0177711320     -0.0200834589      0.0324074015
 H      0.0421945884     -0.0087705375      0.0340734894
 H      0.0049221596      0.0105433046      0.0048184872
 H     -0.0120733558     -0.0309609448     -0.0081797739
 H     -0.0262458453     -0.0131090945     -0.0294610129
 H     -0.0098966668      0.0186891375     -0.0215091005
 H      0.0025729205     -0.0230634182     -0.0016212491
 H      0.0007001284      0.0014647159      0.0046357373
 H     -0.0008610509     -0.0015542391     -0.0115688336
 H      0.0238548347      0.0112628017     -0.0136056458
 H      0.0081814551      0.0024089968     -0.0155627008
 H      0.0132932998     -0.0052077481      0.0037017631
 H      0.0126565657     -0.0372897219      0.0307610855
 H      0.0013323720     -0.0114609743      0.0119506516
 H      0.0183930381     -0.0390146036     -0.0658482037
 H     -0.0331956295     -0.0098206042     -0.0535521858
 H      0.0352602450      0.0346054306     -0.0652798779
 H      0.0156098570      0.0495985763      0.0194955009
 H     -0.0049087738      0.0291992680      0.0316997648
38
# ORCA AIMD Force Step 5, t=2.50 fs, E_Pot=-772.14043912 Hartree, Unit is Hartree/Angstrom
 C     -0.0279034629      0.0021979838     -0.0142293567
 C      0.0029197713     -0.0740865955     -0.0090278139
 C     -0.0122303176      0.0205954729      0.0023552334
 C     -0.0250960323      0.0544728708     -0.0105424373
 C      0.0240632351     -0.0206283838      0.0180496957
 C     -0.0034598595      0.0143704182      0.0110241803
 C     -0.0230288296      0.0262128479      0.0022019392
 C      0.0043775638      0.0065808544      0.0440340539
 C     -0.0032302900     -0.0087768846      0.0100366146
 C      0.0025640963      0.0282343387     -0.0089209214
 C     -0.0185454961     -0.0066669785      0.0253074934
 C     -0.0020451987      0.0255223148      0.0185168671
 C     -0.0365157972      0.0067111331      0.0043885858
 C      0.0151721946      0.0052930454      0.0348001612
 C      0.0124695101     -0.0010311547     -0.0846386966
 C     -0.0212306902      0.0637746319      0.0531923105
 C      0.0168447085     -0.0142074666      0.0180913548
 C      0.0080131285     -0.0202328427      0.1131849301
 C     -0.0050745589     -0.0579819192     -0.1141678303
 C     -0.0189586068     -0.0162778260      0.0370701907
 H      0.0452043086     -0.0056973618      0.0342024668
 H      0.0048124543      0.0182984698      0.0041317607
 H     -0.0096014867     -0.0296745139     -0.0057350224
 H     -0.0241789214     -0.0155183798     -0.0282282763
 H     -0.0100933350      0.0168674451     -0.0178618906
 H      0.0070619412     -0.0310652996     -0.0008327725
 H      0.0046771801     -0.0025198056      0.0016677986
 H     -0.0018205206     -0.0022108670     -0.0199677600
 H      0.0233467987      0.0089834696     -0.0109828681
 H      0.0114745673     -0.0004428611     -0.0212191439
 H      0.0160892608     -0.0053832946     -0.0023591080
 H      0.0114045805     -0.0370223563      0.0303568890
 H     -0.0012488965     -0.0085039323      0.0172500713
 H      0.0191572641     -0.0435634008     -0.0667247007
 H     -0.0327624065     -0.0093090665     -0.0532167346
 H      0.0353574623      0.0345692336     -0.0666678455
 H      0.0153998557      0.0494918498      0.0245196595
 H     -0.0037700832      0.0286174234      0.0310928893
38
# ORCA AIMD Force Step 6, t=3.00 fs, E_Pot=-772.13689526 Hartree, Unit is Hartree/Angstrom
 C     -0.0269617891     -0.0015815254     -0.0106942521
 C      0.0004185212     -0.0864754498     -0.0141507804
 C     -0.0143232905      0.0174654154      0.0038028575
 C     -0.0351326661      0.0652528009     -0.0180366835
 C      0.0250263287     -0.0201410617      0.0156814737
 C     -0.0026801686      0.0146564338      0.0114497459
 C     -0.0236048155      0.0287887900      0.0074633246
 C      0.0004346082      0.0119256672      0.0485969578
 C      0.0046791872     -0.0105677651      0.0129680156
 C     -0.0004962080      0.0367671330     -0.0156869147
 C     -0.0186999175     -0.0079253551      0.0360827049
 C     -0.0039026618      0.0288229878      0.0140757551
 C     -0.0435454631      0.0081784955      0.0077770213
 C      0.0220918771     -0.0015730012      0.0404703928
 C      0.0148508975     -0.0030104135     -0.0929414417
 C     -0.0219254316      0.0706095645      0.0500494785
 C      0.0158802769     -0.0148505234      0.0107780040
 C      0.0102392691     -0.0183981865      0.1196394637
 C     -0.0057258767     -0.0612332740     -0.1269515280
 C     -0.0197785631     -0.0104840332      0.0424707172
 H      0.0459551333     -0.0015180955      0.0321082963
 H      0.0048408203      0.0243878697      0.0037309290
 H     -0.0061435775     -0.0264840684     -0.0025138419
 H     -0.0203951619     -0.0175192708     -0.0251330707
 H     -0.0097843515      0.0137137843     -0.0126151199
 H      0.0100020712     -0.0375120810     -0.0005631530
 H      0.0083981577     -0.0063293161     -0.0011773111
 H     -0.0026154381     -0.0027463879     -0.0264722385
 H      0.0214357901      0.0058624436     -0.0072292010
 H      0.0131476691     -0.0025578598     -0.0250516433
 H      0.0185573166     -0.0054472674     -0.0083299390
 H      0.0093043839     -0.0345571758      0.0279304778
 H     -0.0036844457     -0.0054933211      0.0220934397
 H      0.0189019002     -0.0462181534     -0.0637496439
 H     -0.0304710460     -0.0086907564     -0.0493123225
 H      0.0340280692      0.0325482876     -0.0640966269
 H      0.0141478291      0.0461637667      0.0292472911
 H     -0.0028384183      0.0261609773      0.0284528837
38
# ORCA AIMD Force Step 7, t=3.50 fs, E_Pot=-772.13457592 Hartree, Unit is Hartree/Angstrom
 C     -0.0239971574     -0.0062974787     -0.0052440100
 C     -0.0023311243     -0.0961183515     -0.0196786494
 C     -0.0172167485      0.0126946559      0.0045781585
 C     -0.0463805078      0.0749771960     -0.0269129593
 C      0.0253348560     -0.0183116198      0.0118182092
 C      0.0000269565      0.0131692271      0.0124386801
 C     -0.0232190488      0.0304591837      0.0125956599
 C     -0.0041567373      0.0173225600      0.0500833135
 C      0.0138427110     -0.0114224836      0.0147955440
 C     -0.0036183301      0.0450150816     -0.0221522596
 C     -0.0184769533     -0.0092064658      0.0464572383
 C     -0.0038590247      0.0315002337      0.0074315299
 C     -0.0500320241      0.0092862968      0.0108748334
 C      0.0296409525     -0.0103663801      0.0467425323
 C      0.0168877900     -0.0047070000     -0.0992261595
 C     -0.0214113143      0.0751449475      0.0429369332
 C      0.0126340594     -0.0155708156      0.0001971693
 C      0.0139252568     -0.0146913007      0.1206192230
 C     -0.0053240384     -0.0608238354     -0.1370119071
 C     -0.0201761468     -0.0028007217      0.0484549854
 H      0.0444051532      0.0036297408      0.0278488319
 H      0.0052083893      0.0281249831      0.0038573887
 H     -0.0018084937     -0.0215236088      0.0013896056
 H     -0.0150107080     -0.0190529055     -0.0202659643
 H     -0.0089941472      0.0093653668     -0.0060037518
 H      0.0108799498     -0.0421034185     -0.0010019606
 H      0.0115552122     -0.0095895147     -0.0035666398
 H     -0.0031055245     -0.0031107866     -0.0303040211
 H      0.0181907993      0.0019880595     -0.0024391098
 H      0.0127439319     -0.0039608337     -0.0266498623
 H      0.0206901474     -0.0054403697     -0.0137246901
 H      0.0064395310     -0.0299355931      0.0235304433
 H     -0.0058268299     -0.0027825914      0.0263646831
 H      0.0176178094     -0.0468380200     -0.0569211649
 H     -0.0263070287     -0.0080125955     -0.0417787633
 H      0.0312197192      0.0284539649     -0.0573609925
 H      0.0118318691      0.0396242565      0.0335321301
 H     -0.0021742686      0.0219069997      0.0238653471
38
# ORCA AIMD Force Step 8, t=4.00 fs, E_Pot=-772.13302606 Hartree, Unit is Hartree/Angstrom
 C     -0.0189431009     -0.0118065724      0.0020887431
 C     -0.0054215576     -0.1025566943     -0.0257016882
 C     -0.0207348335      0.0065655080      0.0048084677
 C     -0.0585053709      0.0834440871     -0.0369194310
 C      0.0250642025     -0.0153658953      0.0068250615
 C      0.0048817054      0.0099033475      0.0141301544
 C     -0.0216376586      0.0308945024      0.0172422832
 C     -0.0094257670      0.0226538932      0.0479776657
 C      0.0239253609     -0.0114204348      0.0155527828
 C     -0.0067371570      0.0527956803     -0.0280474794
 C     -0.0178870118     -0.0104820248      0.0561998187
 C     -0.0017567960      0.0336892701     -0.0013208367
 C     -0.0559403952      0.0100877859      0.0132266439
 C      0.0376538258     -0.0208914472      0.0534064617
 C      0.0184626920     -0.0058062093     -0.1033357703
 C     -0.0196127028      0.0770384762      0.0316754809
 C      0.0070855434     -0.0163029710     -0.0136164120
 C      0.0191510422     -0.0090079458      0.1155480127
 C     -0.0038181643     -0.0566557610     -0.1439094345
 C     -0.0201080176      0.0065214006      0.0547276023
 H      0.0404618082      0.0096418556      0.0214301274
 H      0.0060540931      0.0290946057      0.0046635942
 H      0.0031950733     -0.0150872052      0.0057958871
 H     -0.0082868103     -0.0200813031     -0.0138732218
 H     -0.0077863810      0.0040775634      0.0015931502
 H      0.0094310981     -0.0447190614     -0.0022433187
 H      0.0138500177     -0.0119315569     -0.0051860467
 H     -0.0031844274     -0.0032614486     -0.0309390812
 H      0.0138482365     -0.0024289571      0.0031401599
 H      0.0101288152     -0.0047831783     -0.0259287887
 H      0.0224908469     -0.0054056174     -0.0180648405
 H      0.0029312124     -0.0232865340      0.0172812378
 H     -0.0075533402     -0.0006841977      0.0299645931
 H      0.0152456809     -0.0451823966     -0.0460609573
 H     -0.0202798900     -0.0073351047     -0.0306048272
 H      0.0268312364      0.0221155182     -0.0461053452
 H      0.0084326631      0.0299313004      0.0372327008
 H     -0.0018389827      0.0160382767      0.0175167848
38
# ORCA AIMD Force Step 9, t=4.50 fs, E_Pot=-772.13146133 Hartree, Unit is Hartree/Angstrom
 C     -0.0118256592     -0.0179405697      0.0111933081
 C     -0.0088688309     -0.1056985625     -0.0322027904
 C     -0.0246192950     -0.0004679891      0.0046852465
 C     -0.0710219354      0.0905191809     -0.0476348467
 C      0.0243316567     -0.0116902567      0.0012332588
 C      0.0117544031      0.0050543539      0.0164907580
 C     -0.0187169222      0.0298489692      0.0211159067
 C     -0.0153422357      0.0278301219      0.0422336245
 C      0.0344669697     -0.0107235253      0.0153772679
 C     -0.0097855560      0.0599592717     -0.0331465766
 C     -0.0169608198     -0.0117185211      0.0650536205
 C      0.0022225905      0.0355927684     -0.0117482139
 C     -0.0612208644      0.0106447709      0.0144521608
 C      0.0459174481     -0.0328049297      0.0601288426
 C      0.0194927851     -0.0060494422     -0.1051423318
 C     -0.0164375610      0.0759234537      0.0160114028
 C     -0.0006375933     -0.0169702414     -0.0304119460
 C      0.0260116137     -0.0011959055      0.1038439741
 C     -0.0012326459     -0.0488462931     -0.1472823012
 C     -0.0195584033      0.0170842966      0.0608564993
 H      0.0341400422      0.0163778718      0.0129507012
 H      0.0074326776      0.0272281687      0.0061855494
 H      0.0085744366     -0.0076295779      0.0104581057
 H     -0.0006207814     -0.0206014259     -0.0063534425
 H     -0.0062703640     -0.0017512093      0.0096497334
 H      0.0057446732     -0.0454601483     -0.0042396589
 H      0.0150650932     -0.0130650836     -0.0058017548
 H     -0.0028019131     -0.0031785406     -0.0282918863
 H      0.0087638160     -0.0071086494      0.0091616542
 H      0.0054966637     -0.0052367032     -0.0231073283
 H      0.0239688621     -0.0053846593     -0.0209439901
 H     -0.0010503091     -0.0148912380      0.0094444777
 H     -0.0087837075      0.0005501028      0.0328213147
 H      0.0117005321     -0.0409591135     -0.0309154426
 H     -0.0125186437     -0.0067300385     -0.0159942600
 H      0.0207535019      0.0133355508     -0.0299319686
 H      0.0039851727      0.0173109375      0.0402318844
 H     -0.0018659493      0.0088736291      0.0097344431
38
# ORCA AIMD Force Step 10, t=5.00 fs, E_Pot=-772.12899134 Hartree, Unit is Hartree/Angstrom
 C     -0.0028534495     -0.0244722400      0.0217983035
 C     -0.0125726717     -0.1058228585     -0.0390216228
 C     -0.0285194993     -0.0077680311      0.0044712661
 C     -0.0832821961      0.0961390319     -0.0584419205
 C      0.0233070630     -0.0078213673     -0.0042845487
 C      0.0201957350     -0.0010195794      0.0193424978
 C     -0.0144559137      0.0272289653      0.0240430826
 C     -0.0217765099      0.0327640667      0.0332878993
 C      0.0448793286     -0.0095825086      0.0145194095
 C     -0.0127052005      0.0663744671     -0.0372431404
 C     -0.0157464014     -0.0128797228      0.0727575029
 C      0.0076102918      0.0374274606     -0.0231485088
 C     -0.0658181129      0.0110167933      0.0142990144
 C      0.0541593057     -0.0455459056      0.0663780922
 C      0.0199414187     -0.0052663174     -0.1045366382
 C     -0.0118302618      0.0715022329     -0.0041963286
 C     -0.0101586923     -0.0174903101     -0.0495146816
 C      0.0345165743      0.0088166929      0.0852240805
 C      0.0022906274     -0.0378594446     -0.1468795073
 C     -0.0185588485      0.0282959905      0.0662210291
 H      0.0256386478      0.0236365150      0.0026693599
 H      0.0092943384      0.0228169400      0.0083252728
 H      0.0139390479      0.0002115976      0.0150520798
 H      0.0074160351     -0.0206559004      0.0016976641
 H     -0.0046014533     -0.0075751735      0.0175013419
 H      0.0002297567     -0.0446012060     -0.0068130218
 H      0.0151007383     -0.0128287957     -0.0053050726
 H     -0.0019796802     -0.0028654881     -0.0227331210
 H      0.0034291632     -0.0116951364      0.0151660668
 H     -0.0006649673     -0.0055565739     -0.0186575902
 H      0.0251300725     -0.0054089211     -0.0220880424
 H     -0.0052704464     -0.0052550288      0.0004851821
 H     -0.0094896524      0.0007638245      0.0348894331
 H      0.0069237217     -0.0339201753     -0.0113404982
 H     -0.0033729530     -0.0062715625      0.0014259108
 H      0.0129719228      0.0020299376     -0.0086819286
 H     -0.0013785660      0.0022768587      0.0424502848
 H     -0.0022419528      0.0009155972      0.0010354828
38
# ORCA AIMD Force Step 11, t=5.50 fs, E_Pot=-772.12496676 Hartree, Unit is Hartree/Angstrom
 C      0.0074722113     -0.0310718067      0.0333699982
 C     -0.0163244436     -0.1035026839     -0.0458764130
 C     -0.0320082712     -0.0145375688      0.0044899533
 C     -0.0944848784      0.1003160514     -0.0685307756
 C      0.0221959198     -0.0044109466     -0.0089688292
 C      0.0295451687     -0.0078811761      0.0224039721
 C     -0.0090172011      0.0231243603      0.0259877066
 C     -0.0285012731      0.0373686572      0.0219642226
 C      0.0544807383     -0.0083186059      0.0133319839
 C     -0.0154456973      0.0719337458     -0.0401615663
 C     -0.0143082268     -0.0139301168      0.0790565502
 C      0.0137616199      0.0393685615     -0.0346792310
 C     -0.0696619062      0.0112537729      0.0126833998
 C      0.0620453746     -0.0582918416      0.0713754197
 C      0.0198199525     -0.0033921838     -0.1014251590
 C     -0.0058614958      0.0637328198     -0.0286626889
 C     -0.0207485072     -0.0177964049     -0.0696057133
 C      0.0444274743      0.0207900688      0.0601761173
 C      0.0064358886     -0.0246547088     -0.1425805897
 C     -0.0172067078      0.0393640383      0.0699938763
 H      0.0154475258      0.0311109904     -0.0088947634
 H      0.0114942667      0.0164368674      0.0108723127
 H      0.0188155561      0.0076427716      0.0191898886
 H      0.0150851835     -0.0203325998      0.0094915511
 H     -0.0029671604     -0.0127368524      0.0243988030
 H     -0.0064873913     -0.0425151133     -0.0096957931
 H      0.0139938762     -0.0112223808     -0.0037354349
 H     -0.0008069863     -0.0023462814     -0.0149963961
 H     -0.0015563386     -0.0157801790      0.0206069577
 H     -0.0076875726     -0.0059435984     -0.0131932533
 H      0.0259664126     -0.0054929854     -0.0213981248
 H     -0.0094271992      0.0048451694     -0.0088829790
 H     -0.0096957621     -0.0000841497      0.0361467875
 H      0.0009694163     -0.0240390508      0.0123890667
 H      0.0064865212     -0.0060153802      0.0203856080
 H      0.0037221778     -0.0115467572      0.0171123629
 H     -0.0073741688     -0.0142295793      0.0438589284
 H     -0.0028857371     -0.0071368743     -0.0078580226
38
# ORCA AIMD Force Step 12, t=6.00 fs, E_Pot=-772.11936703 Hartree, Unit is Hartree/Angstrom
 C      0.0182384457     -0.0372576768      0.0450208497
 C     -0.0198792970     -0.0994742042     -0.0524151659
 C     -0.0346067255     -0.0199079175      0.0050755119
 C     -0.1037059396      0.1031188229     -0.0769364166
 C      0.0211952055     -0.0021444262     -0.0120616261
 C      0.0390469352     -0.0150795736      0.0253272440
 C     -0.0027010313      0.0177944197      0.0270221767
 C     -0.0352122486      0.0415591128      0.0093265509
 C      0.0625457396     -0.0072640207      0.0122204429
 C     -0.0179377029      0.0765462232     -0.0417906315
 C     -0.0127080147     -0.0148443492      0.0837137332
 C      0.0199937019      0.0415170054     -0.0454735079
 C     -0.0726630298      0.0113631401      0.0097034084
 C      0.0691626694     -0.0699575588      0.0741143620
 C      0.0191982706     -0.0004880651     -0.0957097248
 C      0.0011571832      0.0530812348     -0.0562070840
 C     -0.0313321034     -0.0178725033     -0.0885872503
 C      0.0550852285      0.0339235672      0.0305918151
 C      0.0106676238     -0.0107691001     -0.1344343557
 C     -0.0156749875      0.0493044732      0.0711772028
 H      0.0044604571      0.0383393973     -0.0208573515
 H      0.0138203816      0.0088216641      0.0135547546
 H      0.0227000853      0.0138064385      0.0224603607
 H      0.0215358995     -0.0197495882      0.0161066477
 H     -0.0015577602     -0.0165540872      0.0296031912
 H     -0.0136794567     -0.0396041217     -0.0125773769
 H      0.0119027372     -0.0084070654     -0.0012651731
 H      0.0005751847     -0.0016633609     -0.0060269530
 H     -0.0055558073     -0.0189464596      0.0249146861
 H     -0.0148397784     -0.0065134784     -0.0073632716
 H      0.0264482559     -0.0056280403     -0.0189829349
 H     -0.0131656695      0.0143809322     -0.0177158826
 H     -0.0094651081     -0.0019130942      0.0365859041
 H     -0.0058637125     -0.0117867872      0.0391091121
 H      0.0160202425     -0.0059708053      0.0388397103
 H     -0.0063164969     -0.0265077829      0.0456306848
 H     -0.0135254373     -0.0307454400      0.0444768396
 H     -0.0036434592     -0.0144100576     -0.0160448305
38
# ORCA AIMD Force Step 13, t=6.50 fs, E_Pot=-772.11306050 Hartree, Unit is Hartree/Angstrom
 C      0.0282526405     -0.0424471307      0.0555334463
 C     -0.0228234963     -0.0945091723     -0.0582768299
 C     -0.0359515404     -0.0230610303      0.0065912129
 C     -0.1101743112      0.1046492671     -0.0828073052
 C      0.0205225080     -0.0016020119     -0.0130082478
 C      0.0480905254     -0.0222934567      0.0278688466
 C      0.0040379693      0.0116925564      0.0274015369
 C     -0.0415954251      0.0452107663     -0.0036480899
 C      0.0685264433     -0.0067855628      0.0115713217