60
# ORCA AIMD Position Step 0, t=0.00 fs, E_Pot=-1207.44927290 Hartree, Unit is Angstrom
 C      0.5807680026     -1.6627090074     -5.9642870267
 C      0.8252480037     -2.0497650092     -4.5075130202
 O      0.3785150017     -0.9466840042     -3.6683990164
 C     -0.0138220001     -3.2784670147     -4.1377380185
 C      2.3561890106     -2.1959770098     -4.1031400184
 C      2.8634620128     -3.6335890163     -4.0132540180
 C      3.2935320148     -1.3587520061     -4.9809870223
 O      2.3929130107     -1.6123550072     -2.7713560124
 B      1.2820900057     -0.8083630036     -2.6343660118
 C      1.0693750048      0.1630910007     -1.4325920064
 C      2.0909720094      0.1179600005     -0.3674280016
 C      2.1082980094      0.8290360037      0.7883530035
 H      2.9940980134      0.7432490033      1.4389490064
 C      1.0464280047      1.8409080082      1.1845220053
 H      1.2985630058      2.2496340101      2.1802110098
 C     -0.3526720016      1.2310160055      1.2809120057
 B     -1.1176040050      1.2012730054      2.6374310118
 O     -0.6355430028      1.7703400079      3.8005870170
 C     -1.5070370067      1.3669630061      4.8920510219
 C     -1.6751050075      2.5547550114      5.8369760261
 C     -0.8140340036      0.2069650009      5.6174830252
 C     -2.8341320127      0.9220320041      4.1383330185
 C     -3.8555640173      2.0563860092      3.9860330179
 C     -3.5199310158     -0.3091790014      4.7313780212
 O     -2.3486990105      0.5903580026      2.8113350126
 C     -0.9550770043      0.6555170029      0.2047860009
 C     -0.4172930019      0.5229940023     -1.1569240052
 H     -1.0944980049      0.0207940001     -1.8638300083
 C      0.4452590020      1.5722840070     -1.8248460082
 C      0.9259180041      2.7967820125     -1.1680620052
 C      1.1827180053      2.9498850132      0.1543970007
 H      1.6299780073      3.8999510175      0.4926210022
 H     -0.5084280023     -1.5809770071     -6.1486940275
 H      0.9917920044     -2.4235580109     -6.6573860298
 H      1.0370540046     -0.6841780031     -6.1999940278
 H     -1.0872000049     -3.0393450136     -4.2678450191
 H      0.1433450006     -3.5782300160     -3.0835990138
 H      0.2273890010     -4.1439560186     -4.7859410214
 H      2.7726850124     -4.1481330186     -4.9904960224
 H      2.3095260103     -4.2155540189     -3.2542220146
 H      3.9325520176     -3.6334550163     -3.7233000167
 H      3.3716590151     -1.7705810079     -6.0060330269
 H      4.3037110193     -1.3564060061     -4.5274680203
 H      2.9511770132     -0.3078650014     -5.0486980226
 H      2.9590480133     -0.5213910023     -0.5974070027
 H     -0.7011880031      2.7984450125      6.3051490282
 H     -2.3969090107      2.3237410104      6.6460780298
 H     -2.0251760091      3.4539770155      5.2979280237
 H      0.1907010009      0.5354480024      5.9470270266
 H     -0.6846250031     -0.6660340030      4.9488950222
 H     -1.3858260062     -0.1155980005      6.5096220292
 H     -4.3147070193      2.3239410104      4.9582920222
 H     -4.6617030209      1.7244640077      3.3029950148
 H     -3.3944730152      2.9646940133      3.5526240159
 H     -3.8194800171     -0.1280350006      5.7834210259
 H     -2.8638340128     -1.1977490054      4.6987440210
 H     -4.4352510199     -0.5437190024      4.1528070186
 H     -1.9581320088      0.2200820010      0.3573940016
 H      0.2555770011      1.6715120075     -2.9041030130
 H      1.1674060052      3.6321260163     -1.8474280083
60
# ORCA AIMD Position Step 1, t=0.50 fs, E_Pot=-1207.44608681 Hartree, Unit is Angstrom
 C      0.5848883960     -1.6622093539     -5.9622763042
 C      0.8247650288     -2.0409889808     -4.4990152701
 O      0.3826848451     -0.9461417670     -3.6680294484
 C     -0.0079519132     -3.2827351081     -4.1341080850
 C      2.3527470215     -2.1921113535     -4.1051410777
 C      2.8603559749     -3.6295492041     -4.0147863515
 C      3.2957344337     -1.3607306150     -4.9824491833
 O      2.3962855410     -1.6138603907     -2.7717203347
 B      1.2776366320     -0.8059814705     -2.6342172429
 C      1.0712243099      0.1563702854     -1.4342348186
 C      2.0935471280      0.1172450446     -0.3710147259
 C      2.1097178640      0.8268801624      0.7895761655
 H      3.0121879297      0.7367147612      1.4419712085
 C      1.0419468176      1.8410793586      1.1826679478
 H      1.2997996132      2.2478935038      2.1923743915
 C     -0.3498965345      1.2292115475      1.2805981369
 B     -1.1161649086      1.2007083630      2.6380484764
 O     -0.6360992030      1.7734700375      3.7958505612
 C     -1.5076158576      1.3745352530      4.8968862622
 C     -1.6727573753      2.5546408983      5.8356890250
 C     -0.8185847156      0.2042238651      5.6157120719
 C     -2.8369118126      0.9219031300      4.1387198500
 C     -3.8541115657      2.0599016091      3.9854023660
 C     -3.5171746941     -0.3059655901      4.7346255506
 O     -2.3478215760      0.5888785475      2.8100571132
 C     -0.9537605338      0.6637677040      0.2064195799
 C     -0.4183498577      0.5220768367     -1.1571880909
 H     -1.0952709466      0.0191650330     -1.8568973524
 C      0.4415195394      1.5743209641     -1.8245551362
 C      0.9282449320      2.8026542928     -1.1654684937
 C      1.1797023910      2.9511266858      0.1553564663
 H      1.6328090891      3.9128576475      0.4840049019
 H     -0.4969075730     -1.5700766175     -6.1678904281
 H      0.9892262533     -2.3996700935     -6.6439061814
 H      1.0448193628     -0.6878288229     -6.1857279151
 H     -1.0957808769     -3.0435106816     -4.2529888611
 H      0.1339193919     -3.5834506907     -3.1049159789
 H      0.2184807916     -4.1510211381     -4.7926201615
 H      2.7912371302     -4.1526404905     -4.9912189271
 H      2.3198172933     -4.2140240796     -3.2462109700
 H      3.9129507403     -3.6371660560     -3.7112208473
 H      3.3681584326     -1.7782065179     -6.0057181169
 H      4.2918217498     -1.3590573865     -4.5252277149
 H      2.9282320199     -0.2970108295     -5.0457268769
 H      2.9650317548     -0.5141318218     -0.5945374975
 H     -0.7114146119      2.8021940061      6.3057098718
 H     -2.3891061066      2.3176615712      6.6418501650
 H     -2.0258295688      3.4364317211      5.3040250064
 H      0.2059915218      0.5240618752      5.9424731347
 H     -0.6798145806     -0.6781267713      4.9457358692
 H     -1.3958730204     -0.1299193228      6.5071831871
 H     -4.3114134081      2.3119200953      4.9522294974
 H     -4.6659678862      1.7194926320      3.3083392017
 H     -3.3885534170      2.9635041283      3.5481332576
 H     -3.8246255796     -0.1349381569      5.7789640733
 H     -2.8576206996     -1.1960274305      4.6848198555
 H     -4.4444469133     -0.5309715978      4.1528433982
 H     -1.9621892217      0.2298334123      0.3488692471
 H      0.2585815260      1.6722648453     -2.9128403788
 H      1.1679525029      3.6410615213     -1.8432850687
60
# ORCA AIMD Position Step 2, t=1.00 fs, E_Pot=-1207.43785474 Hartree, Unit is Angstrom
 C      0.5889524967     -1.6615910539     -5.9601879794
 C      0.8242838323     -2.0322726783     -4.4905598635
 O      0.3868975603     -0.9456320665     -3.6676530050
 C     -0.0022159694     -3.2869717844     -4.1306264880
 C      2.3493109995     -2.1882470467     -4.1071066789
 C      2.8572133880     -3.6255699848     -4.0163142760
 C      3.2978314329     -1.3625893891     -4.9839449201
 O      2.3995659630     -1.6153307215     -2.7721453144
 B      1.2732796827     -0.8036692668     -2.6340870548
 C      1.0730161060      0.1497388284     -1.4358495949
 C      2.0961393136      0.1166175678     -0.3744462626
 C      2.1112186826      0.8246245693      0.7907072287
 H      3.0281804080      0.7303038446      1.4437166404
 C      1.0375476615      1.8412718780      1.1809036169
 H      1.3005900196      2.2454947949      2.2025635462
 C     -0.3471710744      1.2273689791      1.2801834641
 B     -1.1147654922      1.2001331185      2.6386935813
 O     -0.6367286854      1.7765572171      3.7911404222
 C     -1.5081820962      1.3820297893      4.9016280568
 C     -1.6704188789      2.5544927957      5.8344539141
 C     -0.8230365591      0.2014312518      5.6139600113
 C     -2.8396306642      0.9218141809      4.1390916410
 C     -3.8526737647      2.0633913946      3.9847047873
 C     -3.5144741431     -0.3028213359      4.7377986503
 O     -2.3469023302      0.5874488825      2.8088563443
 C     -0.9524565170      0.6720130906      0.2081203640
 C     -0.4193409188      0.5211929344     -1.1574789990
 H     -1.0954129631      0.0180395201     -1.8492759867
 C      0.4377859518      1.5763157612     -1.8243223274
 C      0.9305822658      2.8085181381     -1.1628102501
 C      1.1767086557      2.9524519771      0.1562223456
 H      1.6345754844      3.9239667996      0.4749877409
 H     -0.4844096608     -1.5593576691     -6.1866189747
 H      0.9870190031     -2.3764006826     -6.6307003466
 H      1.0522680893     -0.6922635396     -6.1713454823
 H     -1.1023005156     -3.0479479380     -4.2380958548
 H      0.1248520158     -3.5887954172     -3.1255001710
 H      0.2094183849     -4.1566728933     -4.7983901774
 H      2.8096831990     -4.1564271678     -4.9907616305
 H      2.3303998357     -4.2117422510     -3.2393232667
 H      3.8931165483     -3.6405469654     -3.6993829087
 H      3.3645905683     -1.7852778739     -6.0042462166
 H      4.2795047696     -1.3616562697     -4.5232126417
 H      2.9063141542     -0.2885332690     -5.0427142166
 H      2.9700244538     -0.5063815410     -0.5913882251
 H     -0.7220665048      2.8057080353      6.3059452444
 H     -2.3807372299      2.3117248557      6.6369391869
 H     -2.0265317597      3.4189053632      5.3101138974
 H      0.2191300237      0.5121869846      5.9374201808
 H     -0.6753931766     -0.6886102031      4.9435048392
 H     -1.4050181339     -0.1435999210      6.5034546179
 H     -4.3077659410      2.2999293950      4.9456613275
 H     -4.6690675752      1.7150116379      3.3144563296
 H     -3.3831811914      2.9613288857      3.5441440908
 H     -3.8293594685     -0.1418676087      5.7738050398
 H     -2.8523598018     -1.1930550126      4.6710551935
 H     -4.4519951791     -0.5178859702      4.1537728800
 H     -1.9647793724      0.2402263649      0.3402882103
 H      0.2618707813      1.6728572936     -2.9196601730
 H      1.1680426568      3.6488663769     -1.8381840721
60
# ORCA AIMD Position Step 3, t=1.50 fs, E_Pot=-1207.42612900 Hartree, Unit is Angstrom
 C      0.5929086037     -1.6607422208     -5.9578979607
 C      0.8237938625     -2.0236877340     -4.4822060985
 O      0.3911243820     -0.9451310933     -3.6672664478
 C      0.0032938453     -3.2911182446     -4.1274615401
 C      2.3459037658     -2.1843984482     -4.1090223862
 C      2.8539798670     -3.6216701528     -4.0178449024
 C      3.2996972077     -1.3642538265     -4.9854935438
 O      2.4027280470     -1.6167442209     -2.7726286734
 B      1.2691015376     -0.8014687115     -2.6339662424
 C      1.0747242831      0.1432387542     -1.4374110306
 C      2.0987380484      0.1160996763     -0.3776893967
 C      2.1128382894      0.8222620282      0.7917502193
 H      3.0413648497      0.7241647119      1.4437755532
 C      1.0332914972      1.8414946964      1.1792939983
 H      1.3007391613      2.2422715671      2.2101235886
 C     -0.3445018936      1.2255059378      1.2797028449
 B     -1.1134169587      1.1995387090      2.6393512624
 O     -0.6374321222      1.7796122886      3.7864811647
 C     -1.5087200628      1.3893772233      4.9062165406
 C     -1.6680946218      2.5542415439      5.8333025116
 C     -0.8273285084      0.1985621381      5.6122306828
 C     -2.8422588184      0.9218010388      4.1394464811
 C     -3.8512405137      2.0668059252      3.9838899339
 C     -3.5118608390     -0.2997741353      4.7408215013
 O     -2.3459429761      0.5860677864      2.8077453530
 C     -0.9511953738      0.6802204110      0.2098383405
 C     -0.4202232122      0.5203770780     -1.1577710411
 H     -1.0951763914      0.0172500426     -1.8412476085
 C      0.4340686501      1.5782754720     -1.8241729086
 C      0.9329022632      2.8143351246     -1.1601252955
 C      1.1737621455      2.9539110422      0.1570232270
 H      1.6350691748      3.9327860472      0.4656328011
 H     -0.4712361898     -1.5488304400     -6.2047137598
 H      0.9860830850     -2.3552952249     -6.6190225731
 H      1.0595725585     -0.6970641563     -6.1569877291
 H     -1.1061406668     -3.0527096154     -4.2232603250
 H      0.1166276566     -3.5948998451     -3.1432846378
 H      0.2002905089     -4.1606188527     -4.8031234474
 H      2.8278402824     -4.1594325757     -4.9890615556
 H      2.3409699376     -4.2087185727     -3.2337123850
 H      3.8740834104     -3.6433638875     -3.6876079543
 H      3.3610165403     -1.7917157455     -6.0017045165
 H      4.2675688151     -1.3641029263     -4.5211143895
 H      2.8860184565     -0.2833350607     -5.0397260259
 H      2.9742356630     -0.4983604801     -0.5881182856
 H     -0.7324249561      2.8091380119      6.3061140696
 H     -2.3721017549      2.3058581190      6.6316434848
 H     -2.0277405001      3.4025528188      5.3155476306
 H      0.2293249787      0.4997000247      5.9318074839
 H     -0.6715821214     -0.6970226463      4.9423415309
 H     -1.4130431994     -0.1564518737      6.4982676814
 H     -4.3040132736      2.2883200386      4.9392310288
 H     -4.6708864658      1.7111511933      3.3212982964
 H     -3.3784144261      2.9582892938      3.5406621971
 H     -3.8336555164     -0.1487191146      5.7684971581
 H     -2.8482562489     -1.1887205664      4.6575500457
 H     -4.4574562589     -0.5045040762      4.1557906016
 H     -1.9658107776      0.2513257520      0.3317799601
 H      0.2654588467      1.6732851465     -2.9241620974
 H      1.1677014486      3.6555242072     -1.8321632282
60
# ORCA AIMD Position Step 4, t=2.00 fs, E_Pot=-1207.41331393 Hartree, Unit is Angstrom
 C      0.5967082646     -1.6595555507     -5.9552781007
 C      0.8232866646     -2.0153007098     -4.4740065871
 O      0.3953391581     -0.9446121401     -3.6668652821
 C      0.0085081993     -3.2951142397     -4.1247680781
 C      2.3425454494     -2.1805766318     -4.1108758717
 C      2.8506028618     -3.6178568128     -4.0193882771
 C      3.3012137701     -1.3656704468     -4.9871099923
 O      2.4057506945     -1.6180820115     -2.7731687842
 B      1.2651775029     -0.7994171318     -2.6338440566
 C      1.0763259442      0.1369048134     -1.4388939407
 C      2.1013301271      0.1157140218     -0.3807164513
 C      2.1145999913      0.8197864132      0.7927009373
 H      3.0512394383      0.7184177075      1.4418829256
 C      1.0292307775      1.8417510370      1.1778855968
 H      1.3001025870      2.2381322206      2.2145975301
 C     -0.3418917560      1.2236386768      1.2791925275
 B     -1.1121286558      1.1989160768      2.6400061658
 O     -0.6382102430      1.7826491382      3.7818924758
 C     -1.5092146167      1.3965137525      4.9105962326
 C     -1.6657853898      2.5538205494      5.8322618332
 C     -0.8314163944      0.1955969572      5.6105206979
 C     -2.8447694223      0.9218991366      4.1397831937
 C     -3.8497963972      2.0700977326      3.9829134884
 C     -3.5093562049     -0.2968385276      4.7436265823
 O     -2.3449444982      0.5847325690      2.8067352711
 C     -0.9499984492      0.6883680516      0.2115223093
 C     -0.4209522577      0.5196654026     -1.1580352125
 H     -1.0948497951      0.0165997135     -1.8331209273
 C      0.4303766047      1.5802084610     -1.8241191612
 C      0.9351777287      2.8200666472     -1.1574441734
 C      1.1708790760      2.9555410306      0.1577851801
 H      1.6341565342      3.9389938061      0.4560501825
 H     -0.4577121876     -1.5384857862     -6.2220496959
 H      0.9873404730     -2.3378574556     -6.6101231992
 H      1.0669332662     -0.7017815522     -6.1427835466
 H     -1.1068873497     -3.0578089058     -4.2085842826
 H      0.1096810196     -3.6024217941     -3.1562574813
 H      0.1912023370     -4.1626702095     -4.8067660555
 H      2.8455494370     -4.1616344561     -4.9861257824
 H      2.3511938558     -4.2050099289     -3.2294582348
 H      3.8568423616     -3.6453943739     -3.6756879373
 H      3.3574995576     -1.7974871267     -5.9982515439
 H      4.2568193415     -1.3663084612     -4.5186038152
 H      2.8678349969     -0.2820354769     -5.0368376293
 H      2.9779297070     -0.4903114448     -0.5848911736
 H     -0.7417658734      2.8126553715      6.3064902149
 H     -2.3635229210      2.2999677915      6.6262958987
 H     -2.0299294819      3.3884992382      5.3196914629
 H      0.2359982895      0.4865392170      5.9256296280
 H     -0.6685756020     -0.7030449197      4.9422868796
 H     -1.4198111723     -0.1683387924      6.4915497739
 H     -4.3004076450      2.2774195649      4.9335913323
 H     -4.6713909525      1.7080010576      3.3287588253
 H     -3.3742668805      2.9545691855      3.5376583445
 H     -3.8375099672     -0.1553968549      5.7636136686
 H     -2.8454391005     -1.1829983202      4.6443890221
 H     -4.4605379891     -0.4908893994      4.1590052984
 H     -1.9652989503      0.2631607197      0.3234764061
 H      0.2693350398      1.6735574994     -2.9261126788
 H      1.1669747085      3.6611066063     -1.8253212662
60
# ORCA AIMD Position Step 5, t=2.50 fs, E_Pot=-1207.40205682 Hartree, Unit is Angstrom
 C      0.6003159810     -1.6579453296     -5.9522160441
 C      0.8227562295     -2.0071755914     -4.4660093933
 O      0.3995172569     -0.9440457386     -3.6664436192
 C      0.0133812361     -3.2989048761     -4.1226603625
 C      2.3392544139     -2.1767908996     -4.1126564203
 C      2.8470397800     -3.6141267636     -4.0209538451
 C      3.3022774728     -1.3668036352     -4.9888020608
 O      2.4086166053     -1.6193273740     -2.7737646232
 B      1.2615773060     -0.7975478241     -2.6337082582
 C      1.0778006169      0.1307667490     -1.4402729648
 C      2.1039004327      0.1154830132     -0.3835043772
 C      2.1165125348      0.8171933412      0.7935470310
 H      3.0574989588      0.7131565737      1.4379083508
 C      1.0254109416      1.8420384496      1.1767071872
 H      1.2985869594      2.2330555619      2.2157188618
 C     -0.3393408363      1.2217824547      1.2786895498
 B     -1.1109085225      1.1982559507      2.6406426999
 O     -0.6390638988      1.7856837781      3.7773905797
 C     -1.5096509597      1.4033789896      4.9147142255
 C     -1.6634898786      2.5531774412      5.8313517474
 C     -0.8352713146      0.1925234188      5.6088201614
 C     -2.8471373016      0.9221434993      4.1401014017
 C     -3.8483232784      2.0732222149      3.9817418002
 C     -3.5069736879     -0.2940161270      4.7461573801
 O     -2.3439073768      0.5834395785      2.8058362559
 C     -0.9488781568      0.6964433660      0.2131203316
 C     -0.4214833665      0.5190943701     -1.1582413272
 H     -1.0947345579      0.0158798584     -1.8252097204
 C      0.4267184229      1.5821235945     -1.8241600805
 C      0.9373814383      2.8256724377     -1.1547904494
 C      1.1680671625      2.9573653139      0.1585313841
 H      1.6317780842      3.9424374422      0.4463954050
 H     -0.4441699427     -1.5283014781     -6.2385363166
 H      0.9915883487     -2.3253213465     -6.6050321688
 H      1.0745645668     -0.7059645390     -6.1288483483
 H     -1.1043208681     -3.0632208212     -4.1941730639
 H      0.1043632469     -3.6119340753     -3.1627914823
 H      0.1822767227     -4.1627448084     -4.8093415760
 H      2.8626748379     -4.1630476851     -4.9820297007
 H      2.3607149869     -4.2007160142     -3.2265736608
 H      3.8422475051     -3.6464262309     -3.6634211347
 H      3.3541052011     -1.8026016931     -5.9941086417
 H      4.2479791948     -1.3681960412     -4.5153716155
 H      2.8521530761     -0.2850003796     -5.0341320560
 H      2.9814039123     -0.4824870665     -0.5818698792
 H     -0.7494152458      2.8164366895      6.3073333895
 H     -2.3553304347      2.2939483714      6.6212442088
 H     -2.0335293463      3.3777125983      5.3220042509
 H      0.2387752074      0.4726996882      5.9189331891
 H     -0.6665411213     -0.7064974938      4.9432838608
 H     -1.4252644101     -0.1791738852      6.4833241674
 H     -4.2971771919      2.2675210891      4.9293454262
 H     -4.6706284257      1.7056108647      3.3366752526
 H     -3.3707121986      2.9504081110      3.5350718964
 H     -3.8409259097     -0.1618175746      5.7597059590
 H     -2.8439607437     -1.1759502752      4.6316412574
 H     -4.4610937272     -0.4771260825      4.1634415724
 H     -1.9633649777      0.2757228246      0.3155112830
 H      0.2734657467      1.6736955863     -2.9254434024
 H      1.1659266822      3.6657654985     -1.8178142372
60
# ORCA AIMD Position Step 6, t=3.00 fs, E_Pot=-1207.39425032 Hartree, Unit is Angstrom
 C      0.6037190201     -1.6558661070     -5.9486386280
 C      0.8221992266     -1.9993787212     -4.4582629589
 O      0.4036329316     -0.9434002032     -3.6659944219
 C      0.0178886892     -3.3024477670     -4.1211845868
 C      2.3360494372     -2.1730515667     -4.1143534663
 C      2.8432673668     -3.6104697270     -4.0225459244
 C      3.3028058897     -1.3676327840     -4.9905666654
 O      2.4113100368     -1.6204647195     -2.7744155494
 B      1.2583679488     -0.7958915257     -2.6335451327
 C      1.0791295879      0.1248531257     -1.4415212982
 C      2.1064323332      0.1154275723     -0.3860335081
 C      2.1185692556      0.8144816032      0.7942675917
 H      3.0600260483      0.7084520126      1.4318521244
 C      1.0218727523      1.8423490730      1.1757712100
 H      1.2961519853      2.2270900372      2.2134066839
 C     -0.3368487264      1.2199522557      1.2782311669
 B     -1.1097638815      1.1975492942      2.6412446627
 O     -0.6399936134      1.7887322755      3.7729911959
 C     -1.5100144498      1.4099118236      4.9185175576
 C     -1.6612082743      2.5522867052      5.8305828961
 C     -0.8388767924      0.1893394094      5.6071140503
 C     -2.8493372268      0.9225687276      4.1404013958
 C     -3.8468036346      2.0761376096      3.9803571760
 C     -3.5047218152     -0.2912973748      4.7483707094
 O     -2.3428321801      0.5821850507      2.8050582403
 C     -0.9478388137      0.7044376346      0.2145798848
 C     -0.4217735526      0.5186994374     -1.1583602569
 H     -1.0951178016      0.0148909007     -1.8178109755
 C      0.4231045223      1.5840293468     -1.8242812474
 C      0.9394850539      2.8311075893     -1.1521826688
 C      1.1653273324      2.9593921293      0.1592814380
 H      1.6279497020      3.9431310823      0.4368723055
 H     -0.4309376150     -1.5182526507     -6.2541044331
 H      0.9993461729     -2.3184148046     -6.6043203644
 H      1.0826762261     -0.7091885719     -6.1152882015
 H     -1.0984085448     -3.0688808616     -4.1801370894
 H      0.1009220454     -3.6237988623     -3.1619849078
 H      0.1736578828     -4.1608682223     -4.8109535145
 H      2.8790963747     -4.1637210176     -4.9769148762
 H      2.3691590969     -4.1959753551     -3.2250141825
 H      3.8309271012     -3.6462547396     -3.6506581824
 H      3.3509026436     -1.8071045043     -5.9895501111
 H      4.2416050028     -1.3697003914     -4.5111768624
 H      2.8392716826     -0.2923655699     -5.0317008422
 H      2.9849589446     -0.4751355539     -0.5792123506
 H     -0.7548080660      2.8206433960      6.3088554689
 H     -2.3478430152      2.2876949986      6.6168299606
 H     -2.0388575455      3.3708709392      5.3221257415
 H      0.2374769745      0.4582354400      5.9118178890
 H     -0.6656199846     -0.7073391142      4.9451757806
 H     -1.4294214235     -0.1889145138      6.4737137190
 H     -4.2944968136      2.2588774252      4.9269835893
 H     -4.6687247019      1.7039922713      3.3448291345
 H     -3.3676918990      2.9460913294      3.5328171657
 H     -3.8438941546     -0.1679123655      5.7572587465
 H     -2.8437981417     -1.1677304402      4.6193642269
 H     -4.4591209242     -0.4633232343      4.1690403040
 H     -1.9602313326      0.2889616730      0.3080212334
 H      0.2777945528      1.6737320371     -2.9222527090
 H      1.1646368110      3.6697192408     -1.8098516704
60
# ORCA AIMD Position Step 7, t=3.50 fs, E_Pot=-1207.39017329 Hartree, Unit is Angstrom
 C      0.6069335716     -1.6533252517     -5.9445309310
 C      0.8216154332     -1.9919848543     -4.4508223761
 O      0.4076558818     -0.9426425419     -3.6655098513
 C      0.0220240963     -3.3057172516     -4.1203017006
 C      2.3329523705     -2.1693735506     -4.1159552721
 C      2.8392906130     -3.6068727513     -4.0241587016
 C      3.3027449119     -1.3681509997     -4.9923859023
 O      2.4138143121     -1.6214784473     -2.7751206306
 B      1.2556162543     -0.7944778678     -2.6333397355
 C      1.0802947602      0.1191965756     -1.4426098714
 C      2.1089077552      0.1155654804     -0.3882860375
 C      2.1207459942      0.8116558368      0.7948328417
 H      3.0588935360      0.7043548581      1.4238502527
 C      1.0186551818      1.8426694457      1.1750743621
 H      1.2928155917      2.2203580192      2.2077730731
 C     -0.3344168182      1.2181641146      1.2778544268
 B     -1.1087024057      1.1967881051      2.6417950809
 O     -0.6409987967      1.7918079085      3.7687133610
 C     -1.5102903595      1.4160452561      4.9219500528
 C     -1.6589462650      2.5511604341      5.8299563519
 C     -0.8422258998      0.1860564115      5.6053841334
 C     -2.8513418742      0.9232083064      4.1406839798
 C     -3.8452241452      2.0788044314      3.9787631338
 C     -3.5026074303     -0.2886640844      4.7502389514
 O     -2.3417205524      0.5809662218      2.8044115851
 C     -0.9468779350      0.7123389342      0.2158477298
 C     -0.4217839261      0.5185133741     -1.1583665845
 H     -1.0962413156      0.0134662001     -1.8111821410
 C      0.4195502216      1.5859321237     -1.8244546623
 C      0.9414576403      2.8363188096     -1.1496373205
 C      1.1626559778      2.9616122931      0.1600506473
 H      1.6227683875      3.9412599226      0.4277384154
 H     -0.4183281087     -1.5083252835     -6.2686887454
 H      1.0107333324     -2.3171990292     -6.6079257782
 H      1.0914484443     -0.7110902105     -6.1022076103
 H     -1.0893083603     -3.0746818912     -4.1665956761
 H      0.0995008786     -3.6380649626     -3.1538870514
 H      0.1655164913     -4.1571783995     -4.8117865859
 H      2.8946989018     -4.1637338637     -4.9709888361
 H      2.3761414207     -4.1909613701     -3.2246877820
 H      3.8232121977     -3.6446829282     -3.6373507189
 H      3.3479664229     -1.8110674154     -5.9848922452
 H      4.2380120844     -1.3707673968     -4.5058964138
 H      2.8294050604     -0.3040371503     -5.0296452346
 H      2.9888673483     -0.4684878707     -0.5770673051
 H     -0.7575473924      2.8253978796      6.3111853275
 H     -2.3413488649      2.2811203565      6.6133640857
 H     -2.0460504387      3.3682546100      5.3199502306
 H      0.2321252519      0.4432678846      5.9044412961
 H     -0.6659266215     -0.7056680422      4.9477036125
 H     -1.4323736418     -0.1975552225      6.4629465276
 H     -4.2924625795      2.2516989736      4.9268233041
 H     -4.6658823720      1.7031211595      3.3529461480
 H     -3.3651243211      2.9419397406      3.5307908072
 H     -3.8463737694     -0.1736256557      5.7566445569
 H     -2.8448533362     -1.1585902209      4.6076105168
 H     -4.4547657240     -0.4496230389      4.1756553535
 H     -1.9562182817      0.3027765704      0.3011480356
 H      0.2822412557      1.6737100522     -2.9168098947
 H      1.1631967747      3.6732358405     -1.8016928939
60
# ORCA AIMD Position Step 8, t=4.00 fs, E_Pot=-1207.38840408 Hartree, Unit is Angstrom
 C      0.6100050871     -1.6503817266     -5.9399413899
 C      0.8210080313     -1.9850788301     -4.4437516798
 O      0.4115498582     -0.9417394346     -3.6649814755
 C      0.0257966134     -3.3087048445     -4.1198889391
 C      2.3299890024     -2.1657779822     -4.1174484086
 C      2.8351469996     -3.6033231152     -4.0257728040
 C      3.3020754446     -1.3683667020     -4.9942251830
 O      2.4161108881     -1.6223525383     -2.7758780887
 B      1.2533889676     -0.7933356584     -2.6330764539
 C      1.0812785579      0.1138359683     -1.4435076932
 C      2.1113086727      0.1159090875     -0.3902461165
 C      2.1229990483      0.8087285834      0.7952042851
 H      3.0543829024      0.7008946383      1.4141856033
 C      1.0157957650      1.8429801437      1.1745965123
 H      1.2886612137      2.2130608122      2.1991420113
 C     -0.3320494180      1.2164359105      1.2775956331
 B     -1.1077321147      1.1959661879      2.6422761281
 O     -0.6420772175      1.7949194869      3.7645811264
 C     -1.5104641398      1.4217052739      4.9249517129
 C     -1.6567170319      2.5498529748      5.8294655526
 C     -0.8453213521      0.1827015031      5.6036102769
 C     -2.8531211534      0.9240934727      4.1409504955
 C     -3.8435780385      2.0811865413      3.9769876493
 C     -3.5006370701     -0.2860910570      4.7517533324
 O     -2.3405759254      0.5797818367      2.8039070081
 C     -0.9459871161      0.7201284250      0.2168711578
 C     -0.4214832363      0.5185636494     -1.1582414465
 H     -1.0982696009      0.0114962594     -1.8055154775
 C      0.4160773000      1.5878352790     -1.8246389029
 C      0.9432655647      2.8412443297     -1.1471706205
 C      1.1600459865      2.9639973857      0.1608498474
 H      1.6164183830      3.9371888682      0.4193034346