60
# ORCA AIMD Force Step 0, t=0.00 fs, E_Pot=-1207.44927290 Hartree, Unit is Hartree/Angstrom
 C      0.0000000000      0.0000000000      0.0000000000
 C      0.0000000000      0.0000000000      0.0000000000
 O      0.0000000000      0.0000000000      0.0000000000
 C      0.0000000000      0.0000000000      0.0000000000
 C      0.0000000000      0.0000000000      0.0000000000
 C      0.0000000000      0.0000000000      0.0000000000
 C      0.0000000000      0.0000000000      0.0000000000
 O      0.0000000000      0.0000000000      0.0000000000
 B      0.0000000000      0.0000000000      0.0000000000
 C      0.0000000000      0.0000000000      0.0000000000
 C      0.0000000000      0.0000000000      0.0000000000
 C      0.0000000000      0.0000000000      0.0000000000
 H      0.0000000000      0.0000000000      0.0000000000
 C      0.0000000000      0.0000000000      0.0000000000
 H      0.0000000000      0.0000000000      0.0000000000
 C      0.0000000000      0.0000000000      0.0000000000
 B      0.0000000000      0.0000000000      0.0000000000
 O      0.0000000000      0.0000000000      0.0000000000
 C      0.0000000000      0.0000000000      0.0000000000
 C      0.0000000000      0.0000000000      0.0000000000
 C      0.0000000000      0.0000000000      0.0000000000
 C      0.0000000000      0.0000000000      0.0000000000
 C      0.0000000000      0.0000000000      0.0000000000
 C      0.0000000000      0.0000000000      0.0000000000
 O      0.0000000000      0.0000000000      0.0000000000
 C      0.0000000000      0.0000000000      0.0000000000
 C      0.0000000000      0.0000000000      0.0000000000
 H      0.0000000000      0.0000000000      0.0000000000
 C      0.0000000000      0.0000000000      0.0000000000
 C      0.0000000000      0.0000000000      0.0000000000
 C      0.0000000000      0.0000000000      0.0000000000
 H      0.0000000000      0.0000000000      0.0000000000
 H      0.0000000000      0.0000000000      0.0000000000
 H      0.0000000000      0.0000000000      0.0000000000
 H      0.0000000000      0.0000000000      0.0000000000
 H      0.0000000000      0.0000000000      0.0000000000
 H      0.0000000000      0.0000000000      0.0000000000
 H      0.0000000000      0.0000000000      0.0000000000
 H      0.0000000000      0.0000000000      0.0000000000
 H      0.0000000000      0.0000000000      0.0000000000
 H      0.0000000000      0.0000000000      0.0000000000
 H      0.0000000000      0.0000000000      0.0000000000
 H      0.0000000000      0.0000000000      0.0000000000
 H      0.0000000000      0.0000000000      0.0000000000
 H      0.0000000000      0.0000000000      0.0000000000
 H      0.0000000000      0.0000000000      0.0000000000
 H      0.0000000000      0.0000000000      0.0000000000
 H      0.0000000000      0.0000000000      0.0000000000
 H      0.0000000000      0.0000000000      0.0000000000
 H      0.0000000000      0.0000000000      0.0000000000
 H      0.0000000000      0.0000000000      0.0000000000
 H      0.0000000000      0.0000000000      0.0000000000
 H      0.0000000000      0.0000000000      0.0000000000
 H      0.0000000000      0.0000000000      0.0000000000
 H      0.0000000000      0.0000000000      0.0000000000
 H      0.0000000000      0.0000000000      0.0000000000
 H      0.0000000000      0.0000000000      0.0000000000
 H      0.0000000000      0.0000000000      0.0000000000
 H      0.0000000000      0.0000000000      0.0000000000
 H      0.0000000000      0.0000000000      0.0000000000
60
# ORCA AIMD Force Step 1, t=0.50 fs, E_Pot=-1207.44608681 Hartree, Unit is Hartree/Angstrom
 C     -0.0107115549      0.0216550091      0.0139947849
 C      0.0003738041     -0.0118067638     -0.0085989105
 O      0.0098897638     -0.0080010406      0.0016260102
 C     -0.0251290374      0.0061756736     -0.0275008363
 C      0.0014369665     -0.0006347371      0.0066874926
 C     -0.0063746395     -0.0114901536      0.0009603250
 C     -0.0195064189      0.0221210728     -0.0059956400
 O     -0.0228957603      0.0087428540     -0.0147323769
 B      0.0162781554     -0.0116299635     -0.0030726949
 C     -0.0107062140      0.0170031794      0.0052937202
 C      0.0028638682      0.0160751300      0.0287497987
 C      0.0146690814     -0.0180322294     -0.0169712198
 H     -0.0323539823      0.0019484176     -0.0196275124
 C      0.0154563272      0.0038554492      0.0166005657
 H     -0.0068608713     -0.0100906327     -0.0304124376
 C     -0.0094267133     -0.0067908381     -0.0184095461
 B     -0.0066631443     -0.0016946350      0.0044951453
 O     -0.0177831639     -0.0108600384      0.0070459081
 C      0.0023653565     -0.0149760860     -0.0175800647
 C     -0.0019068388     -0.0062065593      0.0096219110
 C      0.0185435278     -0.0091422339      0.0036338825
 C      0.0114287735      0.0073168137     -0.0027903184
 C     -0.0028259013     -0.0050751884     -0.0121802946
 C     -0.0104791981     -0.0129739839     -0.0139419554
 O      0.0100713490      0.0123306260      0.0189660096
 C     -0.0024103408     -0.0018000290      0.0121305727
 C      0.0121425008      0.0061771955     -0.0048803803
 H      0.0096930105      0.0077431759      0.0105152865
 C      0.0014499730     -0.0079171071     -0.0106512472
 C      0.0016701967     -0.0021322758      0.0115818447
 C      0.0043051191      0.0151726067     -0.0172169078
 H     -0.0163698138     -0.0277050926     -0.0060848763
 H      0.0149101475     -0.0028774239      0.0073445311
 H      0.0055256170     -0.0096969805     -0.0043203943
 H     -0.0049265861     -0.0120043157      0.0016657236
 H      0.0317180688     -0.0041345826      0.0004406334
 H      0.0055792595     -0.0018605923      0.0114296501
 H     -0.0022923605      0.0217586653      0.0140138907
 H     -0.0017843655      0.0111042071      0.0181255479
 H      0.0043850093      0.0115307639     -0.0173139481
 H     -0.0034108596      0.0050996926     -0.0038052888
 H     -0.0010034921      0.0085720527      0.0177604511
 H     -0.0064664694      0.0008283086     -0.0034768219
 H      0.0159625415     -0.0365791626      0.0006123487
 H     -0.0152657172      0.0074786688      0.0042710627
 H     -0.0064432163     -0.0036389393     -0.0050016296
 H      0.0086235914      0.0022424060     -0.0104521396
 H     -0.0007411253      0.0004384629     -0.0001755678
 H     -0.0331683853     -0.0074080402     -0.0076236792
 H     -0.0060130476      0.0248097318      0.0142759395
 H      0.0139313489      0.0099575300     -0.0197804590
 H      0.0054049653      0.0005651018     -0.0077120486
 H      0.0179246925      0.0075706191      0.0118218514
 H     -0.0084535765     -0.0151180321      0.0077386750
 H      0.0063636897     -0.0003455831     -0.0107414157
 H     -0.0146746133      0.0191895149      0.0025660787
 H      0.0253732179      0.0050853520      0.0137113624
 H      0.0225577553      0.0097673798     -0.0007923142
 H      0.0043461271     -0.0024687739      0.0295137662
 H     -0.0070107816     -0.0174339348      0.0146740271
60
# ORCA AIMD Force Step 2, t=1.00 fs, E_Pot=-1207.43785474 Hartree, Unit is Hartree/Angstrom
 C     -0.0212986448      0.0419040747      0.0360689308
 C     -0.0014193126     -0.0273525480     -0.0218204304
 O      0.0012842272     -0.0023852410      0.0022704558
 C     -0.0435342696      0.0181150517     -0.0592171878
 C      0.0065792985     -0.0043524506      0.0098738091
 C     -0.0154181746     -0.0160368938      0.0000916802
 C     -0.0430710562      0.0362367552     -0.0090943724
 O     -0.0304890661      0.0145886358     -0.0139979616
 B      0.0309196673     -0.0191659033     -0.0015873947
 C     -0.0159721090      0.0265580399      0.0103694085
 C      0.0002037320      0.0202724791      0.0357547962
 C      0.0211390728     -0.0186854589     -0.0165329990
 H     -0.0435924131      0.0043756306     -0.0259290011
 C      0.0278246318      0.0054648235      0.0289572953
 H     -0.0098630515     -0.0125717797     -0.0406608860
 C     -0.0113322943     -0.0030362550     -0.0118959604
 B     -0.0088539512     -0.0029545908      0.0018465189
 O     -0.0176859757     -0.0093940775      0.0147937846
 C      0.0053850870     -0.0297623197     -0.0298422150
 C     -0.0034991534     -0.0187987354      0.0157750926
 C      0.0309345451     -0.0129138663      0.0048268788
 C      0.0176213181      0.0138914468     -0.0032410938
 C     -0.0013827603     -0.0150939332     -0.0211702567
 C     -0.0169835778     -0.0189462466     -0.0286813060
 O      0.0092967924      0.0125560244      0.0224731540
 C     -0.0083370064     -0.0101184671      0.0024909256
 C      0.0202623370      0.0127774176     -0.0000957949
 H      0.0058124821      0.0051913130      0.0059988425
 C      0.0044079012     -0.0071782097     -0.0153327569
 C     -0.0040648599     -0.0108130282      0.0038639644
 C      0.0097800001      0.0239456939     -0.0122133445
 H     -0.0195813586     -0.0354866952     -0.0048918363
 H      0.0099617589     -0.0032859219      0.0103249011
 H      0.0195744774     -0.0339455943     -0.0238667079
 H     -0.0024526256     -0.0054706271     -0.0008412006
 H      0.0413156662     -0.0048342176     -0.0013607577
 H      0.0132243456     -0.0114826597      0.0436125970
 H     -0.0007128842      0.0263503643      0.0160902858
 H     -0.0050266116      0.0121072348      0.0190507303
 H     -0.0005312213      0.0113073117     -0.0198092322
 H      0.0129268941      0.0087608595     -0.0013469909
 H      0.0000201979      0.0099457118      0.0163644399
 H      0.0062414645      0.0024188937      0.0012112374
 H      0.0255906063     -0.0505811537     -0.0004722850
 H     -0.0121494022      0.0039047551      0.0017498600
 H      0.0048442857     -0.0014024745     -0.0010284732
 H      0.0038207076      0.0012644880     -0.0057440910
 H     -0.0077483815      0.0185711622     -0.0102466056
 H     -0.0455794810     -0.0090078067     -0.0084244890
 H     -0.0095055584      0.0321081849      0.0164516552
 H      0.0174767750      0.0131522547     -0.0222528618
 H      0.0014965615      0.0062358527      0.0023263355
 H      0.0197484041      0.0096639631      0.0109229926
 H     -0.0094611465     -0.0131900040      0.0079103725
 H      0.0068691705      0.0014186410     -0.0021175464
 H     -0.0179240151      0.0207992500      0.0044239239
 H      0.0322622635      0.0041241382      0.0166647721
 H      0.0239959971      0.0105031268      0.0013926148
 H      0.0044782452     -0.0025441130      0.0357777503
 H     -0.0066204175     -0.0178475276      0.0139472948
60
# ORCA AIMD Force Step 3, t=1.50 fs, E_Pot=-1207.42612900 Hartree, Unit is Hartree/Angstrom
 C     -0.0318608101      0.0609722492      0.0583110298
 C     -0.0027369404     -0.0432916775     -0.0351266176
 O     -0.0076230441      0.0038163198      0.0031234391
 C     -0.0585363946      0.0309275234     -0.0887190192
 C      0.0117713913     -0.0080980683      0.0129570424
 C     -0.0235007167     -0.0190421924     -0.0010515087
 C     -0.0653121539      0.0466322513     -0.0110919752
 O     -0.0374211911      0.0199814013     -0.0132648615
 B      0.0448895298     -0.0261303187      0.0001350222
 C     -0.0208709587      0.0357502327      0.0156383350
 C     -0.0033816600      0.0245746520      0.0421539199
 C      0.0245925345     -0.0186747191     -0.0177159791
 H     -0.0516362596      0.0064377295     -0.0299057846
 C      0.0392310168      0.0059344981      0.0380786554
 H     -0.0120492421     -0.0138113434     -0.0478144128
 C     -0.0130048368      0.0007827119     -0.0050214172
 B     -0.0109087081     -0.0041915160     -0.0009498722
 O     -0.0173814645     -0.0078238920      0.0223355941
 C      0.0083744600     -0.0446306643     -0.0419449036
 C     -0.0046807944     -0.0307809752      0.0211750983
 C      0.0408344147     -0.0151474454      0.0049732662
 C      0.0236524572      0.0203203707     -0.0036053764
 C      0.0007889186     -0.0252524401     -0.0288230493
 C     -0.0220187693     -0.0229141549     -0.0422788752
 O      0.0084493074      0.0126909655      0.0257741032
 C     -0.0127759126     -0.0177379333     -0.0076410998
 C      0.0287144774      0.0197007729      0.0053318955
 H      0.0013628148      0.0021872777      0.0009445222
 C      0.0077100568     -0.0065123920     -0.0175915658
 C     -0.0100643661     -0.0204526972     -0.0029380359
 C      0.0140388967      0.0299895997     -0.0077749207
 H     -0.0215824596     -0.0406304614     -0.0028340203
 H      0.0044492235     -0.0035339426      0.0128930987
 H      0.0336714960     -0.0576732135     -0.0433878748
 H      0.0003506542      0.0016109758     -0.0033575221
 H      0.0476670437     -0.0048397972     -0.0034816042
 H      0.0201527617     -0.0212922969      0.0749683357
 H      0.0012469563      0.0293053288      0.0170423629
 H     -0.0081335130      0.0125219801      0.0188145328
 H     -0.0060437642      0.0102835567     -0.0211805028
 H      0.0287901413      0.0122469120      0.0013988605
 H      0.0011241010      0.0106624316      0.0137847698
 H      0.0190144267      0.0038656602      0.0061708345
 H      0.0337838213     -0.0600987269     -0.0017381148
 H     -0.0082186760     -0.0001325454     -0.0008849778
 H      0.0163154401      0.0010989210      0.0031647638
 H     -0.0014720166      0.0000489912     -0.0004244698
 H     -0.0149347750      0.0363689763     -0.0201441256
 H     -0.0546721892     -0.0094511361     -0.0082667344
 H     -0.0125937956      0.0372109349      0.0170683251
 H      0.0198227302      0.0156854819     -0.0230947769
 H     -0.0025154864      0.0116737763      0.0125635511
 H      0.0202666578      0.0111534965      0.0089989804
 H     -0.0098212284     -0.0102142740      0.0075681879
 H      0.0070667499      0.0031417988      0.0068739250
 H     -0.0199974920      0.0209607385      0.0062175492
 H      0.0368386625      0.0026304888      0.0181989890
 H      0.0237176957      0.0104940884      0.0037316286
 H      0.0041636886     -0.0024125154      0.0394068534
 H     -0.0058832806     -0.0169436424      0.0121600076
60
# ORCA AIMD Force Step 4, t=2.00 fs, E_Pot=-1207.41331393 Hartree, Unit is Hartree/Angstrom
 C     -0.0403084199      0.0755479409      0.0769405995
 C     -0.0035258990     -0.0594832202     -0.0483584212
 O     -0.0167647596      0.0105534969      0.0042290101
 C     -0.0695178908      0.0430285528     -0.1105460357
 C      0.0169657406     -0.0119276781      0.0158902354
 C     -0.0291926364     -0.0205211141     -0.0018851276
 C     -0.0846746790      0.0536498060     -0.0115220163
 O     -0.0436941903      0.0249374398     -0.0125245781
 B      0.0580733443     -0.0324886854      0.0020793724
 C     -0.0253907723      0.0445727499      0.0210132120
 C     -0.0075974965      0.0287302070      0.0478280847
 C      0.0250308122     -0.0179457488     -0.0204027942
 H     -0.0564645381      0.0081081561     -0.0316279642
 C      0.0495950187      0.0053052653      0.0438967282
 H     -0.0133732584     -0.0138530217     -0.0518149076
 C     -0.0144485962      0.0046261475      0.0020523223
 B     -0.0128071607     -0.0053668821     -0.0038388038
 O     -0.0168901618     -0.0061991448      0.0296307874
 C      0.0113035524     -0.0594437751     -0.0538359502
 C     -0.0057336869     -0.0398997566      0.0252624685
 C      0.0481896492     -0.0156017251      0.0041160375
 C      0.0295316650      0.0265252862     -0.0038445586
 C      0.0032652967     -0.0351096643     -0.0342239135
 C     -0.0257667913     -0.0247458649     -0.0539257102
 O      0.0075214469      0.0127429984      0.0288521067
 C     -0.0156447671     -0.0245896917     -0.0180244221
 C      0.0371023719      0.0266340047      0.0109529423
 H     -0.0032718092     -0.0009872325     -0.0042511048
 C      0.0113412462     -0.0059607352     -0.0173320268
 C     -0.0162656497     -0.0309428726     -0.0087475085
 C      0.0170068499      0.0331362987     -0.0039374947
 H     -0.0223172139     -0.0430157281      0.0000218411
 H     -0.0013096951     -0.0036682943      0.0150297020
 H      0.0456017401     -0.0770357524     -0.0593067601
 H      0.0032748938      0.0087297574     -0.0057836933
 H      0.0507735880     -0.0041835835     -0.0057754790
 H      0.0257349742     -0.0295650822      0.1000275354
 H      0.0035545236      0.0304820732      0.0167525794
 H     -0.0110108964      0.0123237185      0.0174058861
 H     -0.0119525547      0.0085179767     -0.0214519934
 H      0.0425077600      0.0155158965      0.0039048936
 H      0.0022891436      0.0107261779      0.0101491163
 H      0.0304723337      0.0051232800      0.0107447211
 H      0.0404055181     -0.0653921758     -0.0031362136
 H     -0.0037971334     -0.0043824643     -0.0035277803
 H      0.0269751613      0.0036249083      0.0071005781
 H     -0.0069182983     -0.0012829139      0.0051549400
 H     -0.0213269830      0.0516297130     -0.0284987211
 H     -0.0603922551     -0.0088371848     -0.0072076893
 H     -0.0152237648      0.0400195814      0.0160946351
 H      0.0209083350      0.0174876300     -0.0222760603
 H     -0.0061631414      0.0166094602      0.0219852026
 H      0.0194424522      0.0119959263      0.0060980311
 H     -0.0095570688     -0.0063090108      0.0067384764
 H      0.0071612566      0.0047164733      0.0155015016
 H     -0.0208122235      0.0196102613      0.0078683053
 H      0.0390054864      0.0006745150      0.0183104284
 H      0.0216963119      0.0097336272      0.0061529153
 H      0.0034382650     -0.0020860411      0.0403085898
 H     -0.0048297649     -0.0147839209      0.0093706297
60
# ORCA AIMD Force Step 5, t=2.50 fs, E_Pot=-1207.40205682 Hartree, Unit is Hartree/Angstrom
 C     -0.0443178465      0.0822102635      0.0878050418
 C     -0.0037969843     -0.0756546952     -0.0613004053
 O     -0.0260319863      0.0177081794      0.0055757059
 C     -0.0760821841      0.0525148810     -0.1191470180
 C      0.0221078614     -0.0158581142      0.0186849040
 C     -0.0311235898     -0.0205929729     -0.0017597612
 C     -0.0995105975      0.0575573934     -0.0098890496
 O     -0.0492916103      0.0294363015     -0.0118013969
 B      0.0703686464     -0.0381876480      0.0042371754
 C     -0.0294068492      0.0528698153      0.0264873943
 C     -0.0120231290      0.0324075652      0.0525625967
 C      0.0224968185     -0.0165209332     -0.0245050918
 H     -0.0580411448      0.0093661634     -0.0311438656
 C      0.0587424184      0.0036618355      0.0464327805
 H     -0.0137938580     -0.0127430822     -0.0526307800
 C     -0.0156990147      0.0083711790      0.0091016222
 B     -0.0145167570     -0.0064588651     -0.0067849485
 O     -0.0162134066     -0.0045555293      0.0365956458
 C      0.0141144312     -0.0739439190     -0.0653351973
 C     -0.0070261168     -0.0438116138      0.0274882761
 C      0.0529496395     -0.0140885101      0.0023152358
 C      0.0352060652      0.0324409804     -0.0039382111
 C      0.0055834992     -0.0441743172     -0.0364623029
 C     -0.0284439234     -0.0243917298     -0.0627383047
 O      0.0065259978      0.0126975482      0.0316804799
 C     -0.0169273185     -0.0305636824     -0.0283320161
 C      0.0448905082      0.0331702134      0.0162721918
 H     -0.0076331828     -0.0039922190     -0.0091278698
 C      0.0152228209     -0.0054575442     -0.0145258078
 C     -0.0225333306     -0.0420349713     -0.0135585240
 C      0.0186260230      0.0332908368     -0.0007604427
 H     -0.0217567123     -0.0425718090      0.0035979557
 H     -0.0069593794     -0.0037430619      0.0167393377
 H      0.0529160426     -0.0880511509     -0.0677288522
 H      0.0060833635      0.0153353225     -0.0080188734
 H      0.0506856364     -0.0029007333     -0.0081000415
 H      0.0295383162     -0.0343711146      0.1132002902
 H      0.0061527121      0.0298164128      0.0151418592
 H     -0.0135657049      0.0115340826      0.0148880756
 H     -0.0180160145      0.0061183501     -0.0207147293
 H      0.0524153341      0.0185505891      0.0055628072
 H      0.0034875119      0.0101849849      0.0056678712
 H      0.0391199275      0.0061639878      0.0141717532
 H      0.0453548120     -0.0667267174     -0.0046354257
 H      0.0006637010     -0.0085087705     -0.0060529819
 H      0.0357256414      0.0058763746      0.0102316412
 H     -0.0121161128     -0.0025844207      0.0105670124
 H     -0.0258085636      0.0620317713     -0.0338519102
 H     -0.0627038509     -0.0072682484     -0.0052976206
 H     -0.0173405475      0.0404494212      0.0135062598
 H      0.0206958390      0.0184983833     -0.0198015885
 H     -0.0089332015      0.0207937624      0.0294767026
 H      0.0173063612      0.0121788892      0.0023261728
 H     -0.0087467833     -0.0016946117      0.0054919860
 H      0.0073998838      0.0060336607      0.0229511079
 H     -0.0203409635      0.0167407528      0.0092852833
 H      0.0387145330     -0.0016579163      0.0170273992
 H      0.0180070637      0.0082728333      0.0085656230
 H      0.0023471383     -0.0015751746      0.0384044038
 H     -0.0035219312     -0.0115366967      0.0057246478
60
# ORCA AIMD Force Step 6, t=3.00 fs, E_Pot=-1207.39425032 Hartree, Unit is Hartree/Angstrom
 C     -0.0422415555      0.0790632341      0.0880355089
 C     -0.0035663236     -0.0915362572     -0.0737541317
 O     -0.0352977883      0.0251414328      0.0071654780
 C     -0.0782027697      0.0580089279     -0.1112550912
 C      0.0271271361     -0.0199072476      0.0212914628
 C     -0.0283167386     -0.0194861383     -0.0000341128
 C     -0.1084006692      0.0584755380     -0.0057999090
 O     -0.0542148771      0.0334872162     -0.0110847727
 B      0.0816567920     -0.0431969125      0.0065733654
 C     -0.0328945362      0.0605922462      0.0319713782
 C     -0.0161993473      0.0352842883      0.0562153228
 C      0.0170039609     -0.0143807251     -0.0299261757
 H     -0.0563378092      0.0101930792     -0.0284976701
 C      0.0665820341      0.0010450359      0.0456705036
 H     -0.0132759071     -0.0105230786     -0.0502264894
 C     -0.0167831352      0.0119338442      0.0159178492
 B     -0.0160220263     -0.0074338914     -0.0097036758
 O     -0.0153768284     -0.0029395027      0.0431638800
 C      0.0167751384     -0.0879206200     -0.0763336599
 C     -0.0089069690     -0.0407382745      0.0276749657
 C      0.0550580611     -0.0105399897     -0.0003320816
 C      0.0406580633      0.0379768898     -0.0038681777
 C      0.0073215480     -0.0520239717     -0.0348328719
 C     -0.0302724369     -0.0219067245     -0.0679275916
 O      0.0054685056      0.0125599766      0.0342413019
 C     -0.0167007578     -0.0356286119     -0.0382748343
 C      0.0515548413      0.0389013943      0.0207517433
 H     -0.0112202832     -0.0064545010     -0.0132022953
 C      0.0193012831     -0.0050048701     -0.0092158378
 C     -0.0287508952     -0.0534457151     -0.0174596114
 C      0.0188676773      0.0304068831      0.0017259449
 H     -0.0198915299     -0.0392720601      0.0078108584
 H     -0.0121046283     -0.0038286759      0.0180719427
 H      0.0538542298     -0.0881917891     -0.0660153934
 H      0.0084847753      0.0208118823     -0.0099830090
 H      0.0474806518     -0.0010387029     -0.0103055127
 H      0.0314997106     -0.0343087924      0.1110974942
 H      0.0089795207      0.0272988870      0.0122014250
 H     -0.0157251401      0.0102105759      0.0113727140
 H     -0.0239649666      0.0032387248     -0.0191218144
 H      0.0572408288      0.0213334611      0.0057997065
 H      0.0046935148      0.0091233539      0.0006196450
 H      0.0436918377      0.0069690618      0.0157418024
 H      0.0485338761     -0.0642624385     -0.0062092063
 H      0.0046931871     -0.0121846954     -0.0083422677
 H      0.0415491620      0.0075314773      0.0120265203
 H     -0.0166279087     -0.0036729235      0.0153387453
 H     -0.0274055640      0.0658182631     -0.0350733157
 H     -0.0615960980     -0.0048365512     -0.0025883232
 H     -0.0189153942      0.0385060562      0.0093313382
 H      0.0192008608      0.0186981917     -0.0157613167
 H     -0.0103862663      0.0240564703      0.0340572634
 H      0.0139477571      0.0117238283     -0.0021654118
 H     -0.0075016942      0.0033692082      0.0039279038
 H      0.0080393783      0.0070193132      0.0284507475
 H     -0.0186140474      0.0124281317      0.0103985797
 H      0.0359646648     -0.0042796436      0.0144072017
 H      0.0128026609      0.0061873854      0.0108847566
 H      0.0009480278     -0.0008988213      0.0337374031
 H     -0.0020377803     -0.0074474679      0.0014286838
60
# ORCA AIMD Force Step 7, t=3.50 fs, E_Pot=-1207.39017329 Hartree, Unit is Hartree/Angstrom
 C     -0.0339348799      0.0669134437      0.0774349506
 C     -0.0028494705     -0.1069248608     -0.0856010648
 O     -0.0444566020      0.0327209479      0.0090115988
 C     -0.0761682689      0.0593082818     -0.0876276080
 C      0.0319476830     -0.0240670400      0.0237063864
 C     -0.0205082053     -0.0174858502      0.0037414049
 C     -0.1104455526      0.0562629808      0.0008489962
 O     -0.0585213356      0.0371407155     -0.0103615913
 B      0.0918983417     -0.0475454411      0.0090123524
 C     -0.0358428030      0.0677563092      0.0373579663
 C     -0.0196538981      0.0370463610      0.0587163216
 C      0.0084959520     -0.0114684340     -0.0366210579
 H     -0.0512933320      0.0105644756     -0.0237049323
 C      0.0730411103     -0.0025495012      0.0415246960
 H     -0.0117857087     -0.0072260581     -0.0445540667
 C     -0.0177295068      0.0153091173      0.0223676150
 B     -0.0172750370     -0.0082423939     -0.0125709773
 O     -0.0144249458     -0.0014134014      0.0493202927
 C      0.0192438242     -0.1011902231     -0.0867820125
 C     -0.0115426052     -0.0301509245      0.0262193959
 C      0.0543727609     -0.0049637497     -0.0037147573
 C      0.0459117112      0.0430575624     -0.0036182388
 C      0.0082079737     -0.0583327501     -0.0290420638
 C     -0.0313980769     -0.0174552342     -0.0689291555
 O      0.0043330396      0.0123477356      0.0365244475
 C     -0.0151063328     -0.0398317085     -0.0475546326
 C      0.0565629799      0.0434151928      0.0239101856
 H     -0.0135680678     -0.0080215627     -0.0160500743
 C      0.0235673568     -0.0046295627     -0.0015394275
 C     -0.0347988526     -0.0647950318     -0.0205797016
 C      0.0177492099      0.0244946396      0.0035516567
 H     -0.0167528706     -0.0331682441      0.0125535291
 H     -0.0163601529     -0.0040050430      0.0191283691
 H      0.0481800133     -0.0776535604     -0.0541522311
 H      0.0101636135      0.0245738057     -0.0116245499
 H      0.0412397800      0.0013452486     -0.0122517280
 H      0.0319023392     -0.0291863122      0.0942496326
 H      0.0119601250      0.0230142585      0.0080175009
 H     -0.0174477849      0.0084483062      0.0070270175
 H     -0.0295148796      0.0000815238     -0.0168913817
 H      0.0564430232      0.0238113756      0.0042404048
 H      0.0058815329      0.0076665225     -0.0046584252
 H      0.0434949526      0.0075340847      0.0149876308
 H      0.0497901624     -0.0579621815     -0.0078391996
 H      0.0078147484     -0.0151094603     -0.0102899095
 H      0.0437360020      0.0083055620      0.0120946149
 H     -0.0200337015     -0.0043519963      0.0190108753
 H     -0.0256179663      0.0624183668     -0.0317743105
 H     -0.0570030131     -0.0016115387      0.0008843451
 H     -0.0199287376      0.0342400468      0.0036294824
 H      0.0164807094      0.0180952811     -0.0102986618
 H     -0.0102603388      0.0263304712      0.0350890279
 H      0.0095259917      0.0106890718     -0.0071807371
 H     -0.0059681445      0.0085682093      0.0021798514
 H      0.0092777014      0.0076485267      0.0314174580
 H     -0.0157119085      0.0068145499      0.0111627668
 H      0.0307774186     -0.0071089162      0.0105219185
 H      0.0063078847      0.0035701008      0.0130302855
 H     -0.0007039119     -0.0000758846      0.0264201973
 H     -0.0004705503     -0.0028265816     -0.0032662195
60
# ORCA AIMD Force Step 8, t=4.00 fs, E_Pot=-1207.38840408 Hartree, Unit is Hartree/Angstrom
 C     -0.0208843868      0.0490516047      0.0584943580
 C     -0.0017145571     -0.1215212329     -0.0966590243
 O     -0.0533345049      0.0402409760      0.0110677098
 C     -0.0703831570      0.0573609422     -0.0528257881
 C      0.0364863558     -0.0283347441      0.0258426415
 C     -0.0083182111     -0.0148931344      0.0096474806
 C     -0.1054069045      0.0504935923      0.0097042380
 O     -0.0621786990      0.0403855278     -0.0096045036
 B      0.1009450780     -0.0511537701      0.0115245088
 C     -0.0382678812      0.0743356886      0.0425572131
 C     -0.0219722678      0.0374178900      0.0599132735
 C     -0.0030738914     -0.0077810152     -0.0445566112
 H     -0.0427885748      0.0104558432     -0.0167387814
 C      0.0780062464     -0.0071105961      0.0339709503
 H     -0.0092839699     -0.0028752099     -0.0355417989
 C     -0.0185999900      0.0184036252      0.0281852847
 B     -0.0183157697     -0.0088678311     -0.0152703655
 O     -0.0133770483     -0.0000307900      0.0550051203
 C      0.0214521696     -0.1134234677     -0.0964747952
 C     -0.0148049372     -0.0130572845      0.0240645329
 C      0.0506542461      0.0025188169     -0.0077114987
 C      0.0509377441      0.0475786256     -0.0032274882
 C      0.0081713251     -0.0628085050     -0.0193922078
 C     -0.0318218844     -0.0113594841     -0.0654915821
 O      0.0031478279      0.0120820686      0.0385221687
 C     -0.0124521030     -0.0432557726     -0.0559155903
 C      0.0595334967      0.0463976392      0.0253927383
 H     -0.0142892230     -0.0084001061     -0.0173340344
 C      0.0279468335     -0.0043512397      0.0082385423
 C     -0.0405159149     -0.0755882286     -0.0232299919
 C      0.0153102510      0.0156681536      0.0046942340