38
# ORCA AIMD Force Step 0, t=0.00 fs, E_Pot=-772.15106926 Hartree, Unit is Hartree/Angstrom
 C      0.0000000000      0.0000000000      0.0000000000
 C      0.0000000000      0.0000000000      0.0000000000
 C      0.0000000000      0.0000000000      0.0000000000
 C      0.0000000000      0.0000000000      0.0000000000
 C      0.0000000000      0.0000000000      0.0000000000
 C      0.0000000000      0.0000000000      0.0000000000
 C      0.0000000000      0.0000000000      0.0000000000
 C      0.0000000000      0.0000000000      0.0000000000
 C      0.0000000000      0.0000000000      0.0000000000
 C      0.0000000000      0.0000000000      0.0000000000
 C      0.0000000000      0.0000000000      0.0000000000
 C      0.0000000000      0.0000000000      0.0000000000
 C      0.0000000000      0.0000000000      0.0000000000
 C      0.0000000000      0.0000000000      0.0000000000
 C      0.0000000000      0.0000000000      0.0000000000
 C      0.0000000000      0.0000000000      0.0000000000
 C      0.0000000000      0.0000000000      0.0000000000
 C      0.0000000000      0.0000000000      0.0000000000
 C      0.0000000000      0.0000000000      0.0000000000
 C      0.0000000000      0.0000000000      0.0000000000
 H      0.0000000000      0.0000000000      0.0000000000
 H      0.0000000000      0.0000000000      0.0000000000
 H      0.0000000000      0.0000000000      0.0000000000
 H      0.0000000000      0.0000000000      0.0000000000
 H      0.0000000000      0.0000000000      0.0000000000
 H      0.0000000000      0.0000000000      0.0000000000
 H      0.0000000000      0.0000000000      0.0000000000
 H      0.0000000000      0.0000000000      0.0000000000
 H      0.0000000000      0.0000000000      0.0000000000
 H      0.0000000000      0.0000000000      0.0000000000
 H      0.0000000000      0.0000000000      0.0000000000
 H      0.0000000000      0.0000000000      0.0000000000
 H      0.0000000000      0.0000000000      0.0000000000
 H      0.0000000000      0.0000000000      0.0000000000
 H      0.0000000000      0.0000000000      0.0000000000
 H      0.0000000000      0.0000000000      0.0000000000
 H      0.0000000000      0.0000000000      0.0000000000
 H      0.0000000000      0.0000000000      0.0000000000
38
# ORCA AIMD Force Step 1, t=0.50 fs, E_Pot=-772.14795282 Hartree, Unit is Hartree/Angstrom
 C     -0.0135753351      0.0042283612     -0.0090337148
 C      0.0140135529     -0.0124721908      0.0117273378
 C     -0.0135244479      0.0146546973     -0.0117292090
 C     -0.0003077135      0.0043542996      0.0033509736
 C      0.0142876630     -0.0075461480      0.0088996540
 C      0.0013448742      0.0026897298      0.0103044329
 C     -0.0168701378      0.0137581763     -0.0136764674
 C      0.0166391715     -0.0127633954      0.0121295488
 C     -0.0180969451      0.0062460997     -0.0121120043
 C      0.0105450528     -0.0076373702      0.0172022882
 C     -0.0191553085      0.0030947713      0.0150488133
 C     -0.0020308284     -0.0031703747      0.0083420958
 C     -0.0049826677      0.0001232020     -0.0039264382
 C     -0.0041900867      0.0118430558      0.0251035008
 C      0.0032779700      0.0017017716     -0.0415238652
 C     -0.0030301571      0.0088815548      0.0249095162
 C      0.0255716328     -0.0022466345     -0.0012220878
 C     -0.0075797275     -0.0190992211      0.0224722236
 C      0.0044920702     -0.0136338867     -0.0120562688
 C      0.0063544431     -0.0078447262      0.0051918917
 H      0.0209990533     -0.0105478790      0.0198769928
 H      0.0044564648     -0.0145277517      0.0062358461
 H     -0.0131438194     -0.0231929685     -0.0100497916
 H     -0.0216729821     -0.0043019284     -0.0218523377
 H     -0.0061843881      0.0158239774     -0.0224781619
 H     -0.0126191158      0.0053040740     -0.0050130289
 H     -0.0096919701      0.0111452428      0.0111082144
 H      0.0022735988      0.0004106304      0.0151432270
 H      0.0169623294      0.0112725684     -0.0153835260
 H     -0.0116222322      0.0012697626      0.0064144974
 H      0.0016769495     -0.0006966171      0.0168680113
 H      0.0087528097     -0.0210911115      0.0212513237
 H      0.0075158242     -0.0162401082      0.0001160724
 H      0.0101840221     -0.0188546562     -0.0364569409
 H     -0.0145333678      0.0055738415     -0.0328987275
 H      0.0071216685      0.0189344224     -0.0369495326
 H      0.0108797619      0.0327200571      0.0025040911
 H      0.0048705126      0.0216167479      0.0221959526
38
# ORCA AIMD Force Step 2, t=1.00 fs, E_Pot=-772.14270838 Hartree, Unit is Hartree/Angstrom
 C     -0.0199744464      0.0055006826     -0.0131474959
 C      0.0109083604     -0.0280767705      0.0061560636
 C     -0.0119456362      0.0189584966     -0.0072751106
 C     -0.0038074897      0.0172088297      0.0021534501
 C      0.0176456521     -0.0128910447      0.0141030420
 C      0.0005667884      0.0063549959      0.0109557772
 C     -0.0184423921      0.0165764102     -0.0111333586
 C      0.0141353951     -0.0083596569      0.0200844148
 C     -0.0163018253      0.0007508292     -0.0052468412
 C      0.0080179087      0.0008503400      0.0109834319
 C     -0.0216985415      0.0033254289      0.0254563901
 C     -0.0071418538      0.0007807227      0.0103818324
 C     -0.0137650741      0.0049424488     -0.0023723005
 C     -0.0008285377      0.0131763769      0.0269517334
 C      0.0057134383      0.0013746573     -0.0558097043
 C     -0.0080412252      0.0220860832      0.0382329156
 C      0.0345885102     -0.0030199046      0.0048825113
 C     -0.0129760322     -0.0232372337      0.0523965439
 C      0.0031113216     -0.0321679882     -0.0328846169
 C      0.0057412229     -0.0101148892      0.0054052915
 H      0.0296798874     -0.0113504848      0.0262092309
 H      0.0048810124     -0.0065134474      0.0060832641
 H     -0.0139854493     -0.0277545775     -0.0102957629
 H     -0.0250513690     -0.0074451270     -0.0262877003
 H     -0.0077600006      0.0179939961     -0.0241759842
 H     -0.0077230039     -0.0040950618     -0.0042024707
 H     -0.0067145400      0.0085058426      0.0095013435
 H      0.0015205045     -0.0002584786      0.0066940313
 H      0.0207642195      0.0119722486     -0.0165141114
 H     -0.0064114512     -0.0034355658     -0.0017381358
 H      0.0051324194     -0.0015162213      0.0127545169
 H      0.0105852671     -0.0274924189      0.0268436161
 H      0.0053406257     -0.0147594873      0.0059158131
 H      0.0142799214     -0.0289244803     -0.0498350608
 H     -0.0196949209      0.0061481386     -0.0437914703
 H      0.0105976966      0.0262812014     -0.0519534501
 H      0.0128314475      0.0423308926      0.0074926091
 H      0.0056134550      0.0260925813      0.0270851549
38
# ORCA AIMD Force Step 3, t=1.50 fs, E_Pot=-772.13643097 Hartree, Unit is Hartree/Angstrom
 C     -0.0247330365      0.0052842156     -0.0153931670
 C      0.0081682582     -0.0439730438      0.0009936618
 C     -0.0112986765      0.0214161790     -0.0035824266
 C     -0.0090531205      0.0298645064     -0.0006367824
 C      0.0204777019     -0.0168360979      0.0173326757
 C     -0.0007550219      0.0099043605      0.0112007456
 C     -0.0202174423      0.0198173547     -0.0075728149
 C      0.0114345751     -0.0036682183      0.0283985430
 C     -0.0129399847     -0.0039063184      0.0007433586
 C      0.0051758066      0.0094733904      0.0044350802
 C     -0.0237670153      0.0034282578      0.0356372092
 C     -0.0126427449      0.0045782879      0.0124181006
 C     -0.0224415595      0.0095403080      0.0001601318
 C      0.0035584500      0.0125376415      0.0294991249
 C      0.0082381712      0.0004162142     -0.0686834583
 C     -0.0116632022      0.0334349741      0.0470026159
 C      0.0415174430     -0.0035541084      0.0079718662
 C     -0.0172451347     -0.0245792388      0.0776423901
 C      0.0023110115     -0.0479407840     -0.0538062277
 C      0.0051812680     -0.0104822797      0.0072820579
 H      0.0365383226     -0.0107974306      0.0304973309
 H      0.0049995583      0.0020951356      0.0055745252
 H     -0.0137100766     -0.0304201576     -0.0096321202
 H     -0.0266357821     -0.0104324558     -0.0288879732
 H     -0.0088997720      0.0188440826     -0.0240124383
 H     -0.0023281322     -0.0135572921     -0.0031736260
 H     -0.0031471817      0.0051494852      0.0071978254
 H      0.0006105094     -0.0009677643     -0.0024439964
 H      0.0231658856      0.0116766649     -0.0163829225
 H     -0.0008255117     -0.0079684185     -0.0100259902
 H      0.0084459957     -0.0022215138      0.0077565245
 H      0.0114314545     -0.0319400233      0.0305917937
 H      0.0029198137     -0.0125519578      0.0116246432
 H      0.0171423389     -0.0371524902     -0.0587520628
 H     -0.0231898804      0.0065598224     -0.0512393660
 H      0.0130410558      0.0311850661     -0.0623346220
 H      0.0140911273      0.0488595548      0.0126901233
 H      0.0064257559      0.0286977548      0.0299890930
38
# ORCA AIMD Force Step 4, t=2.00 fs, E_Pot=-772.13014815 Hartree, Unit is Hartree/Angstrom
 C     -0.0278125984      0.0038118538     -0.0158125100
 C      0.0055857053     -0.0595767633     -0.0040404357
 C     -0.0115700567      0.0219589519     -0.0006103171
 C     -0.0160298336      0.0421360190     -0.0050361051
 C      0.0226848043     -0.0193342571      0.0186163412
 C     -0.0020623242      0.0128237118      0.0111472814
 C     -0.0218111106      0.0230996623     -0.0031370695
 C      0.0083885611      0.0013647609      0.0364742375
 C     -0.0078500274     -0.0077557860      0.0058955991
 C      0.0021046659      0.0182721275     -0.0024532366
 C     -0.0254312293      0.0033777743      0.0451646337
 C     -0.0177372028      0.0079318070      0.0139584602
 C     -0.0308604925      0.0138512719      0.0034018829
 C      0.0088500142      0.0099759916      0.0329319728
 C      0.0107239063     -0.0009647748     -0.0799049384
 C     -0.0140755755      0.0429522023      0.0515132569
 C      0.0462126587     -0.0038550905      0.0080211360
 C     -0.0203523963     -0.0233901076      0.0982176536
 C      0.0021613932     -0.0605450326     -0.0742258013
 C      0.0047151890     -0.0089030976      0.0107991151
 H      0.0415267435     -0.0090458230      0.0327946856
 H      0.0049178302      0.0106546277      0.0048712134
 H     -0.0123079819     -0.0310979227     -0.0080582810
 H     -0.0263733574     -0.0131696689     -0.0295698555
 H     -0.0095716978      0.0183470297     -0.0220299381
 H      0.0029616560     -0.0225472500     -0.0021330150
 H      0.0007350221      0.0013600331      0.0044580434
 H     -0.0003926730     -0.0016793360     -0.0116776778
 H      0.0240876359      0.0103759807     -0.0149575370
 H      0.0044187552     -0.0120077437     -0.0176942697
 H      0.0115479759     -0.0028060030      0.0021173013
 H      0.0113120071     -0.0343066954      0.0323931084
 H      0.0004536861     -0.0099691454      0.0170464837
 H      0.0188851771     -0.0435319011     -0.0636067286
 H     -0.0249606438      0.0067838199     -0.0551312047
 H      0.0144746395      0.0338158146     -0.0683505901
 H      0.0145748978      0.0520801642      0.0178859095
 H      0.0072524312      0.0293392698      0.0308144251
38
# ORCA AIMD Force Step 5, t=2.50 fs, E_Pot=-772.12465460 Hartree, Unit is Hartree/Angstrom
 C     -0.0290925764      0.0011836255     -0.0144017145
 C      0.0030993455     -0.0739992336     -0.0090602789
 C     -0.0127718642      0.0205977761      0.0016210973
 C     -0.0246531564      0.0537929542     -0.0110488562
 C      0.0242484687     -0.0203344446      0.0179907486
 C     -0.0026371229      0.0146343325      0.0111362494
 C     -0.0230177542      0.0261864309      0.0018831524
 C      0.0049316985      0.0066021130      0.0432926796
 C     -0.0011282403     -0.0106901485      0.0100318434
 C     -0.0011286107      0.0270307548     -0.0093985324
 C     -0.0266333521      0.0031693915      0.0539965970
 C     -0.0217616554      0.0106336332      0.0142875788
 C     -0.0389671001      0.0178304483      0.0069513886
 C      0.0149686343      0.0054828113      0.0371136491
 C      0.0130439677     -0.0024974481     -0.0892600485
 C     -0.0153237409      0.0505375290      0.0520952751
 C      0.0485924921     -0.0038944302      0.0051205500
 C     -0.0222835523     -0.0201235928      0.1138889049
 C      0.0027038785     -0.0695814919     -0.0934480017
 C      0.0043901082     -0.0053590067      0.0159273240
 H      0.0444775972     -0.0061548718      0.0330185181
 H      0.0047958139      0.0183587336      0.0042005925
 H     -0.0098272569     -0.0297916651     -0.0056230637
 H     -0.0242935445     -0.0155749655     -0.0283291193
 H     -0.0097462684      0.0164786898     -0.0182823243
 H      0.0074201402     -0.0305066000     -0.0013409336
 H      0.0046765399     -0.0025913821      0.0015315351
 H     -0.0013695344     -0.0023306637     -0.0200343121
 H      0.0235093762      0.0081127341     -0.0122639840
 H      0.0086314616     -0.0153081463     -0.0240427678
 H      0.0143957667     -0.0032747670     -0.0037190077
 H      0.0102798045     -0.0345453494      0.0322299303
 H     -0.0019193964     -0.0072697589      0.0220431948
 H      0.0195902181     -0.0480417324     -0.0647007443
 H     -0.0250126486      0.0068087140     -0.0554998609
 H      0.0149198404      0.0343343848     -0.0702295391
 H      0.0142346932      0.0519362958      0.0228803863
 H      0.0080326989      0.0279975288      0.0295424773
38
# ORCA AIMD Force Step 6, t=3.00 fs, E_Pot=-772.12040211 Hartree, Unit is Hartree/Angstrom
 C     -0.0284994968     -0.0024754165     -0.0111676844
 C      0.0005266956     -0.0863912430     -0.0142946276
 C     -0.0148771260      0.0174152467      0.0031173384
 C     -0.0347571563      0.0646109583     -0.0186018886
 C      0.0251618617     -0.0198760493      0.0156103131
 C     -0.0017978733      0.0149294295      0.0114503414
 C     -0.0235603420      0.0287462898      0.0071384840
 C      0.0009389134      0.0119682199      0.0478743934
 C      0.0070688066     -0.0126510140      0.0130344388
 C     -0.0044767996      0.0356236690     -0.0162106509
 C     -0.0273270793      0.0027927856      0.0618855651
 C     -0.0239963033      0.0125279128      0.0128657127
 C     -0.0466478177      0.0214500335      0.0103848160
 C      0.0217935901     -0.0008967422      0.0419471658
 C      0.0150634032     -0.0038906035     -0.0965775953
 C     -0.0154493116      0.0561262771      0.0489281321
 C      0.0486123597     -0.0036810260     -0.0007251332
 C     -0.0230023328     -0.0151087718      0.1243014934
 C      0.0039741756     -0.0747001065     -0.1107931160
 C      0.0042480830      0.0001406551      0.0225393913
 H      0.0452935731     -0.0022310091      0.0311711391
 H      0.0048304067      0.0243846875      0.0038244185
 H     -0.0063333751     -0.0265481625     -0.0023876091
 H     -0.0204592626     -0.0175715150     -0.0251971008
 H     -0.0094143666      0.0132808517     -0.0129076846
 H      0.0103596635     -0.0369613925     -0.0010467167
 H      0.0083782320     -0.0063705451     -0.0012727180
 H     -0.0021812023     -0.0028622973     -0.0265393763
 H      0.0214573764      0.0049520427     -0.0083604631
 H      0.0110906596     -0.0176767292     -0.0283670022
 H      0.0169569266     -0.0036446812     -0.0092826877
 H      0.0084044712     -0.0326417958      0.0301151017
 H     -0.0040526999     -0.0047550555      0.0264874234
 H      0.0192979103     -0.0506274558     -0.0622009851
 H     -0.0233288058      0.0066238269     -0.0523077611
 H      0.0143524950      0.0327924464     -0.0680151398
 H      0.0130207010      0.0483693210      0.0274879663
 H      0.0087086426      0.0246818730      0.0261931215
38
# ORCA AIMD Force Step 7, t=3.50 fs, E_Pot=-772.11743016 Hartree, Unit is Hartree/Angstrom
 C     -0.0259495370     -0.0070267586     -0.0060979652
 C     -0.0022515514     -0.0962030953     -0.0200712314
 C     -0.0178560599      0.0125338304      0.0040394287
 C     -0.0462432434      0.0744656010     -0.0276481756
 C      0.0255504308     -0.0180647712      0.0116697480
 C      0.0010216466      0.0134231038      0.0123863405
 C     -0.0231210383      0.0304045502      0.0123988976
 C     -0.0038176480      0.0174535554      0.0494083168
 C      0.0166759914     -0.0137640786      0.0148949272
 C     -0.0079166050      0.0441402668     -0.0227664257
 C     -0.0275236984      0.0022586440      0.0688631487
 C     -0.0239445657      0.0136354717      0.0093656521
 C     -0.0540270411      0.0247397054      0.0131972982
 C      0.0293413831     -0.0090939699      0.0474600215
 C      0.0166592101     -0.0048429904     -0.1017476693
 C     -0.0144154349      0.0596812133      0.0419152226
 C      0.0461440475     -0.0032349189     -0.0095611603
 C     -0.0223572080     -0.0084522440      0.1289719732
 C      0.0060356803     -0.0756600883     -0.1259071266
 C      0.0042491756      0.0074818832      0.0305626147
 H      0.0439176530      0.0026560145      0.0272581367
 H      0.0052365343      0.0280732529      0.0039665826
 H     -0.0019570739     -0.0215241088      0.0015481901
 H     -0.0150030850     -0.0191136419     -0.0202809832
 H     -0.0086081677      0.0089028629     -0.0061214151
 H      0.0111865172     -0.0415968498     -0.0014798832
 H      0.0115607950     -0.0096003940     -0.0036521544
 H     -0.0026726962     -0.0032104062     -0.0304215094
 H      0.0180040229      0.0009791195     -0.0033565994
 H      0.0113589367     -0.0191444477     -0.0302939573
 H      0.0192453957     -0.0039484253     -0.0140890462
 H      0.0057303565     -0.0285999605      0.0260542278
 H     -0.0058325051     -0.0028219511      0.0302763391
 H      0.0179917688     -0.0511710978     -0.0560791757
 H     -0.0198870656      0.0062273877     -0.0455181097
 H      0.0126994270      0.0290891642     -0.0614792768
 H      0.0109065889      0.0413136675      0.0315594385
 H      0.0092511343      0.0194891204      0.0208694810
38
# ORCA AIMD Force Step 8, t=4.00 fs, E_Pot=-772.11535611 Hartree, Unit is Hartree/Angstrom
 C     -0.0214025492     -0.0122979073      0.0006693252
 C     -0.0054687080     -0.1024758080     -0.0260262155
 C     -0.0212930579      0.0063588222      0.0042301376
 C     -0.0583576561      0.0828780247     -0.0376435972
 C      0.0251472037     -0.0151768294      0.0067174025
 C      0.0058642450      0.0102685646      0.0138567099
 C     -0.0215207873      0.0308291728      0.0169063041
 C     -0.0089573169      0.0226637957      0.0473157231
 C      0.0268551932     -0.0137491887      0.0155756682
 C     -0.0111558213      0.0515586039     -0.0284500693
 C     -0.0271930480      0.0015714869      0.0741788021
 C     -0.0214797987      0.0138830581      0.0036965906
 C     -0.0604787596      0.0276417020      0.0151047083
 C      0.0369758602     -0.0188358555      0.0530514427
 C      0.0178205244     -0.0051828039     -0.1044658559
 C     -0.0121818380      0.0603969088      0.0311511153
 C      0.0412759796     -0.0023903577     -0.0211987062
 C     -0.0203823494     -0.0006417533      0.1269020565
 C      0.0087742162     -0.0717933835     -0.1370158077
 C      0.0047156933      0.0163344783      0.0393695560
 H      0.0401391462      0.0083600901      0.0212296301
 H      0.0060588931      0.0289913963      0.0047860655
 H      0.0030919054     -0.0150134332      0.0059535525
 H     -0.0082141399     -0.0201059646     -0.0138496474
 H     -0.0073724116      0.0035662419      0.0015706248
 H      0.0098035766     -0.0442654976     -0.0026354189
 H      0.0137826277     -0.0119019849     -0.0051830109
 H     -0.0028059562     -0.0033556321     -0.0310180958
 H      0.0135518552     -0.0034327896      0.0023635896
 H      0.0091069843     -0.0195567156     -0.0294693632
 H      0.0211869157     -0.0041895097     -0.0177310554
 H      0.0024758987     -0.0225635512      0.0202438444
 H     -0.0071279228     -0.0014255561      0.0333011843
 H      0.0156297689     -0.0493912061     -0.0462137799
 H     -0.0146801958      0.0055752322     -0.0350929918
 H      0.0098627769      0.0232766416     -0.0506769251
 H      0.0077992697      0.0308951334      0.0348310582
 H      0.0095426366      0.0125920890      0.0137470027
38
# ORCA AIMD Force Step 9, t=4.50 fs, E_Pot=-772.11343600 Hartree, Unit is Hartree/Angstrom
 C     -0.0148443735     -0.0181750904      0.0091567764
 C     -0.0089946375     -0.1056855470     -0.0326561344
 C     -0.0252036631     -0.0007823395      0.0041929688
 C     -0.0710832699      0.0900311426     -0.0484993087
 C      0.0244611380     -0.0115548848      0.0011005998
 C      0.0128217231      0.0054642197      0.0160861382
 C     -0.0185607324      0.0297826805      0.0208317629
 C     -0.0149333021      0.0278385919      0.0416009871
 C      0.0376829010     -0.0131604065      0.0152953910
 C     -0.0143711003      0.0586765225     -0.0334435318
 C     -0.0263673387      0.0007416391      0.0782916704
 C     -0.0167892228      0.0136749060     -0.0037275356
 C     -0.0665949126      0.0302847647      0.0156482243
 C      0.0450496156     -0.0299387975      0.0588421150
 C      0.0184434589     -0.0046774910     -0.1048609222
 C     -0.0086120143      0.0584954594      0.0160577170
 C      0.0339473943     -0.0013044594     -0.0356381417
 C     -0.0167154190      0.0087186103      0.1176822362
 C      0.0123064990     -0.0634637356     -0.1448411674
 C      0.0053509498      0.0263416458      0.0488510874
 H      0.0341111508      0.0148169149      0.0132292465
 H      0.0074578179      0.0270944919      0.0063091066
 H      0.0085247115     -0.0074700366      0.0106426142
 H     -0.0004477475     -0.0206085206     -0.0062618612
 H     -0.0058399475     -0.0022904505      0.0097704601
 H      0.0060955468     -0.0450917547     -0.0045795156
 H      0.0149989087     -0.0130121800     -0.0057664242
 H     -0.0024530866     -0.0032504494     -0.0283750468
 H      0.0082754169     -0.0081947584      0.0086034912
 H      0.0047067335     -0.0193738301     -0.0263461217
 H      0.0228737199     -0.0044254251     -0.0198100920
 H     -0.0013177218     -0.0147547762      0.0128502758
 H     -0.0079633824     -0.0010314733      0.0355450837
 H      0.0120819125     -0.0450364019     -0.0322145639
 H     -0.0077871193      0.0047121284     -0.0211811973
 H      0.0056705946      0.0149600556     -0.0348544589
 H      0.0037673853      0.0171655412      0.0372738205
 H      0.0096461055      0.0044007136      0.0052577024
38
# ORCA AIMD Force Step 10, t=5.00 fs, E_Pot=-772.11078583 Hartree, Unit is Hartree/Angstrom
 C     -0.0064724219     -0.0244246551      0.0190972662
 C     -0.0128154019     -0.1058611193     -0.0396051299
 C     -0.0291235785     -0.0081968336      0.0040469810
 C     -0.0835473905      0.0957384080     -0.0594332409
 C      0.0234781986     -0.0077647312     -0.0043981434
 C      0.0213531982     -0.0005591572      0.0187613947
 C     -0.0142621512      0.0271650773      0.0237911866
 C     -0.0214096319      0.0327548972      0.0326799000
 C      0.0482992349     -0.0120756028      0.0142614089
 C     -0.0173789849      0.0649571372     -0.0373708246
 C     -0.0250329864     -0.0002193795      0.0808118494
 C     -0.0104499177      0.0131696043     -0.0123141614
 C     -0.0720180911      0.0325993907      0.0147222182
 C      0.0530638026     -0.0418509324      0.0642444529
 C      0.0185658536     -0.0032748002     -0.1026798793
 C     -0.0036398463      0.0534441562     -0.0034911915
 C      0.0244614564      0.0000943541     -0.0522360215
 C     -0.0113252896      0.0194666838      0.1008193443
 C      0.0164701939     -0.0508152873     -0.1485383629
 C      0.0062758922      0.0367558646      0.0581684828
 H      0.0259484400      0.0218120480      0.0034583663
 H      0.0093425169      0.0226526275      0.0084498991
 H      0.0139557034      0.0004763775      0.0152729575
 H      0.0077035982     -0.0206387774      0.0018700528
 H     -0.0041584747     -0.0081334817      0.0177435865
 H      0.0005644799     -0.0443425341     -0.0070828417
 H      0.0150367644     -0.0127580811     -0.0052346468
 H     -0.0016674355     -0.0029116902     -0.0228031560
 H      0.0027618198     -0.0128630290      0.0148242867
 H     -0.0013821880     -0.0187351119     -0.0213412517
 H      0.0242661651     -0.0046557001     -0.0201906258
 H     -0.0054044257     -0.0055801892      0.0042654965
 H     -0.0083031020     -0.0016247555      0.0369505240
 H      0.0072786488     -0.0378190890     -0.0138978050
 H      0.0005272013      0.0036529284     -0.0042991786
 H      0.0000279070      0.0041432564     -0.0140428059
 H     -0.0011282926      0.0006417291      0.0387495609
 H      0.0095404614     -0.0044830963     -0.0039883678
38
# ORCA AIMD Force Step 11, t=5.50 fs, E_Pot=-772.10670652 Hartree, Unit is Hartree/Angstrom
 C      0.0032824885     -0.0307471313      0.0300309858
 C     -0.0167051159     -0.1036029328     -0.0466036698
 C     -0.0326262781     -0.0150788655      0.0041378100
 C     -0.0949654772      0.1000205949     -0.0696526227
 C      0.0224407708     -0.0044640781     -0.0090222131
 C      0.0308122388     -0.0073742796      0.0216341609
 C     -0.0087777946      0.0230599567      0.0257811580
 C     -0.0281869573      0.0373440579      0.0213709506
 C      0.0580253292     -0.0108474172      0.0128547797
 C     -0.0201491036      0.0703316207     -0.0400742606
 C     -0.0232211617     -0.0012932626      0.0816341979
 C     -0.0032177725      0.0126147613     -0.0212886124
 C     -0.0767013838      0.0346282349      0.0123292055
 C      0.0607409409     -0.0538368530      0.0685616538
 C      0.0182345107     -0.0010037497     -0.0978796982
 C      0.0027228544      0.0451542719     -0.0274024121
 C      0.0133951932      0.0017527537     -0.0698853590
 C     -0.0042562149      0.0313918769      0.0767027222
 C      0.0210181285     -0.0347744129     -0.1480230570
 C      0.0074373392      0.0466869215      0.0663996395
 H      0.0160806227      0.0290658838     -0.0076265817
 H      0.0115685626      0.0162514302      0.0109936466
 H      0.0188991176      0.0080112351      0.0194489316
 H      0.0154912231     -0.0202904529      0.0097508710
 H     -0.0025233037     -0.0132906388      0.0247283723
 H     -0.0061871537     -0.0423800312     -0.0098909025
 H      0.0139393628     -0.0111397800     -0.0036343371
 H     -0.0005359714     -0.0023618188     -0.0150432643
 H     -0.0023731877     -0.0170266641      0.0204678634
 H     -0.0084364292     -0.0178962146     -0.0151393752
 H      0.0253519104     -0.0048876643     -0.0188469625
 H     -0.0095029083      0.0042431933     -0.0048644487
 H     -0.0082132076     -0.0031660301      0.0375151566
 H      0.0012228252     -0.0276438502      0.0086646598
 H      0.0097288728      0.0024730874      0.0144878026
 H     -0.0070250452     -0.0089706473      0.0113015987
 H     -0.0066608074     -0.0177579663      0.0392551826
 H      0.0092834441     -0.0132443112     -0.0131549528
38
# ORCA AIMD Force Step 12, t=6.00 fs, E_Pot=-772.10107005 Hartree, Unit is Hartree/Angstrom
 C      0.0136338214     -0.0367197184      0.0411861361
 C     -0.0203829106     -0.0996457247     -0.0533055373
 C     -0.0352475274     -0.0205430335      0.0048195329
 C     -0.1044266452      0.1029538267     -0.0782062355
 C      0.0215662460     -0.0023428808     -0.0120181390
 C      0.0404672234     -0.0145523822      0.0243859350
 C     -0.0024186560      0.0177373458      0.0268946052
 C     -0.0349725316      0.0415176266      0.0087049299
 C      0.0661266418     -0.0098407739      0.0114970055
 C     -0.0226409588      0.0747258103     -0.0414167049
 C     -0.0209483568     -0.0024692799      0.0806666093
 C      0.0041025913      0.0121948695     -0.0298862512
 C     -0.0805515307      0.0363749559      0.0086451001
 C      0.0677257605     -0.0649017687      0.0708816630
 C      0.0175308228      0.0020239320     -0.0903908949
 C      0.0102399112      0.0339762574     -0.0548371040
 C      0.0016702583      0.0035905071     -0.0867393032
 C      0.0041076168      0.0437729147      0.0470192521
 C      0.0254996262     -0.0169729804     -0.1434309585
 C      0.0087537499      0.0550582136      0.0724465106
 H      0.0052839472      0.0361664865     -0.0192553412
 H      0.0139276968      0.0086208149      0.0136659654
 H      0.0228362868      0.0142548063      0.0227505079
 H      0.0220527012     -0.0196864583      0.0164509957
 H     -0.0011316181     -0.0170658334      0.0299802500
 H     -0.0134532013     -0.0395915459     -0.0127060407
 H      0.0118695734     -0.0083151676     -0.0011435748
 H      0.0008071230     -0.0016387989     -0.0060209403
 H     -0.0064625679     -0.0202578621      0.0249405633
 H     -0.0156970525     -0.0170578915     -0.0084474619
 H      0.0260961926     -0.0051081268     -0.0159449321
 H     -0.0132793719      0.0137540094     -0.0136873418
 H     -0.0077854361     -0.0055223839      0.0372482545
 H     -0.0058617866     -0.0148516665      0.0346540817
 H      0.0189438027      0.0012949964      0.0333938359
 H     -0.0151302744     -0.0235879116      0.0395428370
 H     -0.0124041432     -0.0364984943      0.0388889868
 H      0.0089760648     -0.0208884674     -0.0212283503
38
# ORCA AIMD Force Step 13, t=6.50 fs, E_Pot=-772.09460369 Hartree, Unit is Hartree/Angstrom
 C      0.0234176583     -0.0417820917      0.0514474842
 C     -0.0235398531     -0.0947523012     -0.0593535472
 C     -0.0365630818     -0.0237653192      0.0064174434
 C     -0.1110453106      0.1046346262     -0.0841461733
 C      0.0210343962     -0.0019975501     -0.0127874004
 C      0.0496341045     -0.0217271293      0.0267096500
 C      0.0043968446      0.0116086680      0.0273224496
 C     -0.0414378273      0.0451787877     -0.0042583006
 C      0.0719568840     -0.0093879039      0.0105835740