38
# ORCA AIMD Position Step 0, t=0.00 fs, E_Pot=-772.15106926 Hartree, Unit is Angstrom
 C      1.6250050073      0.6468900029     -0.7591370034
 C      2.4165020108      1.7242950077     -0.0382970002
 C      3.3387280150      1.4756630066      0.9198940041
 C      3.7042680166      0.1444860006      1.4326960064
 C      2.6664750119     -0.9827930044      1.5897350071
 C      3.7788430169     -1.1014710049      0.5299940024
 C      3.4916400156     -1.0561030047     -0.9144130041
 C      2.5441400114     -0.2956120013     -1.5107210068
 C      1.2407850056     -0.8327890037      1.2432780056
 C      0.7118400032     -0.1169640005      0.2107150009
 C     -0.7648990034      0.0424020002      0.0015420000
 C     -1.2549980056     -0.1024100005     -1.3304450060
 C     -2.6209990117      0.2571360012     -1.8540620083
 C     -3.3323470149      1.4354060064     -1.2701960057
 C     -3.5203280158      1.6158410072      0.0488170002
 C     -3.0367780136      0.6596700030      1.1062660050
 C     -1.5626280070      0.3259220015      1.1121290050
 C     -3.4368970154     -0.7892750035      1.0063400045
 C     -3.4342850154     -1.5474810069     -0.1560010007
 C     -3.0019350134     -1.1354480051     -1.4360690064
 H      0.9726900044      1.1519230052     -1.4938560067
 H      2.2273230100      2.7713780124     -0.3287110015
 H      3.8710350173      2.3297750104      1.3721380061
 H      4.4718140200      0.1580550007      2.2223940100
 H      2.8434000127     -1.6111190072      2.4771530111
 H      4.5842820205     -1.7977630081      0.8102860036
 H      4.1108660184     -1.7139250077     -1.5465330069
 H      2.4259610109     -0.3584770016     -2.6061650117
 H      0.5422930024     -1.3719370061      1.9043370085
 H     -0.5377840024     -0.4708730021     -2.0803270093
 H     -2.5892510116      0.3230480014     -2.9556240132
 H     -3.7014550166      2.1919450098     -1.9803720089
 H     -4.0421850181      2.5226710113      0.3927560018
 H     -3.3155560148      1.0487750047      2.1030290094
 H     -1.0837730049      0.2707230012      2.1007190094
 H     -3.6576080164     -1.2980150058      1.9560310088
 H     -3.6914390165     -2.6147450117     -0.0508810002
 H     -2.9827440134     -1.8988020085     -2.2284400100
38
# ORCA AIMD Position Step 1, t=0.50 fs, E_Pot=-772.14795282 Hartree, Unit is Angstrom
 C      1.6291694077      0.6453027648     -0.7577503203
 C      2.4165070983      1.7301857794     -0.0310490486
 C      3.3434560961      1.4741111155      0.9198552276
 C      3.7100133296      0.1385909274      1.4355457063
 C      2.6638065211     -0.9813389349      1.5874968974
 C      3.7764780704     -1.0998595792      0.5281794037
 C      3.4940714555     -1.0599294444     -0.9161641993
 C      2.5480366513     -0.2992991596     -1.5115250871
 C      1.2374297086     -0.8327601271      1.2429734783
 C      0.7139523917     -0.1250751080      0.2088005807
 C     -0.7621308157      0.0397173176     -0.0021288164
 C     -1.2532736415     -0.1063965761     -1.3297699129
 C     -2.6155380720      0.2537493900     -1.8537282854
 C     -3.3359544595      1.4335221343     -1.2723012938
 C     -3.5192784283      1.6137091560      0.0515434261
 C     -3.0338288037      0.6560009151      1.1055523340
 C     -1.5609324300      0.3234254922      1.1122262317
 C     -3.4370972715     -0.7881283343      1.0009766456
 C     -3.4343665553     -1.5426778963     -0.1520622617
 C     -2.9993723680     -1.1375898040     -1.4376619383
 H      0.9579563050      1.1400838696     -1.4997154621
 H      2.2181126556      2.7676863301     -0.3278404841
 H      3.8750247460      2.3374501761      1.3698350674
 H      4.4798704241      0.1647876623      2.2321868348
 H      2.8458050637     -1.6200057572      2.4722374392
 H      4.5878476340     -1.7753194082      0.8150450352
 H      4.1070294008     -1.7200753134     -1.5476926528
 H      2.4257041028     -0.3619875270     -2.6003311804
 H      0.5300895304     -1.3688736193      1.9049082352
 H     -0.5310668462     -0.4558475226     -2.0725740184
 H     -2.5991968538      0.3236309540     -2.9529674920
 H     -3.6984555567      2.2015679323     -1.9885870520
 H     -4.0313344124      2.5304812216      0.3749812674
 H     -3.3174327924      1.0683199250      2.1147784705
 H     -1.0763152443      0.2653856574      2.1131788892
 H     -3.6649196774     -1.3038175339      1.9690240163
 H     -3.6995139283     -2.6215007772     -0.0705717428
 H     -2.9903514357     -1.9072242979     -2.2349049381
38
# ORCA AIMD Position Step 2, t=1.00 fs, E_Pot=-772.14270838 Hartree, Unit is Angstrom
 C      1.6332622934      0.6437376138     -0.7564121230
 C      2.4165887950      1.7360121840     -0.0237322975
 C      3.3481133055      1.4726383306      0.9197523075
 C      3.7157606792      0.1327158414      1.4384155690
 C      2.6612144073     -0.9799251757      1.5853059894
 C      3.7741189449     -1.0982324070      0.5264199602
 C      3.4964122476     -1.0636831509     -0.9179912912
 C      2.5520267722     -0.3030584763     -1.5122633810
 C      1.2339733119     -0.8326970871      1.2426025430
 C      0.7161237926     -0.1332332157      0.2069789585
 C     -0.7594655497      0.0370478151     -0.0057197437
 C     -1.2515592630     -0.1104030632     -1.3290487804
 C     -2.6101008356      0.2503612603     -1.8534158107
 C     -3.3395871444      1.4317017835     -1.2742707150
 C     -3.5182102422      1.6115852278      0.0540446243
 C     -3.0308942493      0.6523780038      1.1049743704
 C     -1.5590959669      0.3209150856      1.1123168407
 C     -3.4373390923     -0.7870853298      0.9957326608
 C     -3.4344235919     -1.5379462071     -0.1481868795
 C     -2.9967733270     -1.1397758729     -1.4392275194
 H      0.9445808988      1.1275500065     -1.5042839689
 H      2.2091866235      2.7630459541     -0.3265632147
 H      3.8781608990      2.3436195733      1.3668760178
 H      4.4865203149      0.1712444640      2.2405625875
 H      2.8478088347     -1.6278675221      2.4658545102
 H      4.5905935754     -1.7525157862      0.8194806101
 H      4.1025589874     -1.7255036247     -1.5481294860
 H      2.4255951253     -0.3654735770     -2.5935071782
 H      0.5189830463     -1.3650739806      1.9044777843
 H     -0.5251023874     -0.4407296081     -2.0643981836
 H     -2.6090399010      0.3241689079     -2.9492105080
 H     -3.6948840175      2.2098232572     -1.9954231504
 H     -4.0199872200      2.5372386441      0.3572025887
 H     -3.3186474211      1.0866493475      2.1241608159
 H     -1.0697993266      0.2604079261      2.1235038869
 H     -3.6717721821     -1.3083904733      1.9796186268
 H     -3.7068853842     -2.6261296067     -0.0901121199
 H     -2.9976465282     -1.9142439739     -2.2399282578
38
# ORCA AIMD Position Step 3, t=1.50 fs, E_Pot=-772.13643097 Hartree, Unit is Angstrom
 C      1.6372549449      0.6421990982     -0.7551428968
 C      2.4167303499      1.7416978580     -0.0163657026
 C      3.3527154517      1.4712660105      0.9196093593
 C      3.7214998965      0.1269219220      1.4413035533
 C      2.6587131030     -0.9785788176      1.5831873962
 C      3.7717577082     -1.0965668727      0.5247165667
 C      3.4986573162     -1.0673544640     -0.9198833284
 C      2.5561030409     -0.3068718326     -1.5128934278
 C      1.2304200946     -0.8326298003      1.2422020837
 C      0.7183438553     -0.1414046952      0.2052134003
 C     -0.7569131042      0.0343906076     -0.0091793370
 C     -1.2498801686     -0.1144141306     -1.3282692575
 C     -2.6047268928      0.2469926843     -1.8531156240
 C     -3.3432323878      1.4299494967     -1.2760970390
 C     -3.5171084390      1.6094641276      0.0562460234
 C     -3.0279972037      0.6488679175      1.1046042953
 C     -1.5570662188      0.3183826114      1.1124343612
 C     -3.4376524368     -0.7861671477      0.9907637426
 C     -3.4344637329     -1.5333800495     -0.1444828413
 C     -2.9941371347     -1.1420221083     -1.4407669880
 H      0.9331107306      1.1142485306     -1.5071540274
 H      2.2005590571      2.7579707240     -0.3248865643
 H      3.8803922898      2.3479933202      1.3632392650
 H      4.4915518352      0.1772301939      2.2472431880
 H      2.8493111695     -1.6345736537      2.4578814821
 H      4.5928421321     -1.7299287350      0.8236520316
 H      4.0976409863     -1.7303894454     -1.5479479055
 H      2.4255850266     -0.3689841788     -2.5862317256
 H      0.5092056137     -1.3604854938      1.9029698516
 H     -0.5195427045     -0.4258022530     -2.0563175924
 H     -2.6185701197      0.3246092101     -2.9446137753
 H     -3.6906145496      2.2163046299     -2.0005244557
 H     -4.0082668105      2.5430488465      0.3397702745
 H     -3.3189338461      1.1031337207      2.1303152148
 H     -1.0645528963      0.2558199856      2.1309969936
 H     -3.6779489776     -1.3112602826      1.9868498744
 H     -3.7134366626     -2.6280091735     -0.1092072356
 H     -3.0045918049     -1.9195782212     -2.2431970338
38
# ORCA AIMD Position Step 4, t=2.00 fs, E_Pot=-772.13014815 Hartree, Unit is Angstrom
 C      1.6411291743      0.6406829602     -0.7539525577
 C      2.4169172414      1.7471669632     -0.0089622508
 C      3.3572753475      1.4700051224      0.9194461825
 C      3.7272140101      0.1212668452      1.4442003662
 C      2.6563132766     -0.9773189198      1.5811546896
 C      3.7693822670     -1.0948399951      0.5230672492
 C      3.5008012395     -1.0709329051     -0.9218249063
 C      2.5602593138     -0.3107215401     -1.5133706385
 C      1.2267808593     -0.8325836191      1.2418039875
 C      0.7206017307     -0.1495591419      0.2034646011
 C     -0.7544799322      0.0317408429     -0.0124585190
 C     -1.2482631508     -0.1184172308     -1.3274184033
 C     -2.5994529324      0.2436619899     -1.8528132802
 C     -3.3468736889      1.4282583987     -1.2777696014
 C     -3.5159568213      1.6073362612      0.0580806698
 C     -3.0251516763      0.6455259667      1.1044900490
 C     -1.5548004470      0.3158198735      1.1125960404
 C     -3.4380615596     -0.7853796567      0.9861988379
 C     -3.4344913891     -1.5290569639     -0.1410576735
 C     -2.9914613252     -1.1443353284     -1.4422731420
 H      0.9239759723      1.1001857385     -1.5080462081
 H      2.1922209463      2.7530105692     -0.3228389955
 H      3.8817385391      2.3504006379      1.3589584546
 H      4.4948666825      0.1825606756      2.2520671804
 H      2.8502391524     -1.6400787047      2.4483075098
 H      4.5949483545     -1.7081300471      0.8276341460
 H      4.0924966414     -1.7349600699     -1.5472958532
 H      2.4256147239     -0.3725729036     -2.5790847304
 H      0.5008981851     -1.3551154731      1.9003864130
 H     -0.5140131811     -0.4113312220     -2.0488567916
 H     -2.6275898333      0.3249064240     -2.9394912840
 H     -3.6855809095      2.2207293820     -2.0036512342
 H     -3.9963058848      2.5480647430      0.3230221905
 H     -3.3181028613      1.1172639898      2.1326619668
 H     -1.0607973586      0.2516405437      2.1351784069
 H     -3.6833011145     -1.3121073345      1.9900442858
 H     -3.7190963563     -2.6267084032     -0.1275556837
 H     -3.0111473845     -1.9230625315     -2.2445227977
38
# ORCA AIMD Position Step 5, t=2.50 fs, E_Pot=-772.12465460 Hartree, Unit is Angstrom
 C      1.6448762194      0.6391778195     -0.7528411388
 C      2.4171359778      1.7523451489     -0.0015326004
 C      3.3618015889      1.4688563924      0.9192785939
 C      3.7328775560      0.1158058522      1.4470884867
 C      2.6540221497     -0.9761567963      1.5792107741
 C      3.7669800052     -1.0930315318      0.5214682766
 C      3.5028395821     -1.0744080695     -0.9237963637
 C      2.5644887220     -0.3145889068     -1.5136509911
 C      1.2230748180     -0.8325796585      1.2414356149
 C      0.7228858909     -0.1576666647      0.2016909306
 C     -0.7521702997      0.0290922922     -0.0155114958
 C     -1.2467328191     -0.1224029874     -1.3264854632
 C     -2.5943137254      0.2403854845     -1.8524903105
 C     -3.3504902494      1.4266109511     -1.2792725332
 C     -3.5147388873      1.6051892086      0.0594892087
 C     -3.0223647364      0.6423976813      1.1046574847
 C     -1.5522665108      0.3132192627      1.1128027524
 C     -3.4385849390     -0.7847152621      0.9821426117
 C     -3.4345073757     -1.5250375911     -0.1380170892
 C     -2.9887421889     -1.1467124682     -1.4437299249
 H      0.9174944671      1.0854401478     -1.5068017634
 H      2.1841496588      2.7487140793     -0.3204598216
 H      3.8822895094      2.3507920736      1.3541232455
 H      4.4964802270      0.1870656053      2.2549909012
 H      2.8505478841     -1.6444211108      2.4372318123
 H      4.5972618151     -1.6876619905      0.8315029186
 H      4.0873667180     -1.7394716945     -1.5463483019
 H      2.4256189621     -0.3762947755     -2.5726539533
 H      0.4941101292     -1.3490325266      1.8968089379
 H     -0.5081588713     -0.3975501399     -2.0425032188
 H     -2.6359140326      0.3250222650     -2.9341970168
 H     -3.6797753906      2.2229418010     -2.0046822160
 H     -3.9842372053      2.5524621209      0.3072783615
 H     -3.3160326952      1.1286426351      2.1308686654
 H     -1.0586479541      0.2478769885      2.1357854483
 H     -3.6877425879     -1.3107507568      1.9887942669
 H     -3.7238408455     -2.6219967800     -0.1448554896
 H     -3.0172719817     -1.9246528850     -2.2438441369
38
# ORCA AIMD Position Step 6, t=3.00 fs, E_Pot=-772.12040211 Hartree, Unit is Angstrom
 C      1.6484959823      0.6376661646     -0.7517991552
 C      2.4173736154      1.7571619570      0.0059115455
 C      3.3662968580      1.4678107818      0.9191184538
 C      3.7384547512      0.1105928919      1.4499409315
 C      2.6518443037     -0.9750962312      1.5773487960
 C      3.7645425047     -1.0911271170      0.5199166028
 C      3.5047692134     -1.0777695515     -0.9257745269
 C      2.5687817564     -0.3184534681     -1.5136961593
 C      1.2193305493     -0.8326343355      1.2411191168
 C      0.7251836012     -0.1656959133      0.1998503456
 C     -0.7499868772      0.0264382422     -0.0182945074
 C     -1.2453086960     -0.1263648353     -1.3254660428
 C     -2.5893439622      0.2371785178     -1.8521263971
 C     -3.3540559176      1.4249793548     -1.2805847616
 C     -3.5134388348      1.6030098899      0.0604200277
 C     -3.0196378090      0.6395197254      1.1051122878
 C     -1.5494439761      0.3105747980      1.1130393548
 C     -3.4392351436     -0.7841555708      0.9786763919
 C     -3.4345086606     -1.5213653662     -0.1354631024
 C     -2.9859754536     -1.1491395685     -1.4451118846
 H      0.9138656836      1.0701645795     -1.5033872152
 H      2.1763222400      2.7455810758     -0.3177853717
 H      3.8822025590      2.3492385762      1.3488785035
 H      4.4965189687      0.1905909034      2.2560872256
 H      2.8502218975     -1.6477233785      2.4248647482
 H      4.6000805359     -1.6690120799      0.8353174385
 H      4.0824982881     -1.7441917889     -1.5452924006
 H      2.4255336720     -0.3802012402     -2.5674777934
 H      0.4888008644     -1.3423664422      1.8923984985
 H     -0.5016894762     -0.3846510569     -2.0376670758
 H     -2.6433687313      0.3249249439     -2.9291002018
 H     -3.6732474096      2.2229141458     -2.0036143351
 H     -3.9721897288      2.5564220816      0.2928400246
 H     -3.3126634725      1.1369778021      2.1248285606
 H     -1.0581157484      0.2445261776      2.1327681545
 H     -3.6912467252     -1.3071370512      1.9829405682
 H     -3.7276954250     -2.6138478973     -0.1608085026
 H     -3.0229241971     -1.9244260019     -2.2412275894
38
# ORCA AIMD Position Step 7, t=3.50 fs, E_Pot=-772.11743016 Hartree, Unit is Angstrom
 C      1.6519963143      0.6361254147     -0.7508078306
 C      2.4176165825      1.7615536193      0.0133534942
 C      3.3707564973      1.4668501096      0.9189737949
 C      3.7438982119      0.1056813813      1.4527204443
 C      2.6497823386     -0.9741339678      1.5755534724
 C      3.7620701385     -1.0891211730      0.5184119150
 C      3.5065892159     -1.0810075992     -0.9277337608
 C      2.5731239620     -0.3222919113     -1.5134788262
 C      1.2155867205     -0.8327590626      1.2408709694
 C      0.7274802784     -0.1736118073      0.1979018482
 C     -0.7479311716      0.0237723221     -0.0207661265
 C     -1.2440017791     -0.1302984883     -1.3243655021
 C     -2.5845794741      0.2340564927     -1.8517017110
 C     -3.3575384346      1.4233261052     -1.2816800361
 C     -3.5120427135      1.6007868575      0.0608299084
 C     -3.0169677841      0.6369205539      1.1058405060
 C     -1.5463254856      0.3078830020      1.1132744000
 C     -3.4400183616     -0.7836731308      0.9758573981
 C     -3.4344881293     -1.5180658049     -0.1334914956
 C     -2.9831570187     -1.1515907797     -1.4463842084
 H      0.9131641795      1.0545863794     -1.4978974958
 H      2.1687307233      2.7440119393     -0.3148331924
 H      3.8817001950      2.3459315635      1.3434237202
 H      4.4952190404      0.1930022813      2.2555456293
 H      2.8492763945     -1.6501902651      2.4115260786
 H      4.6036061996     -1.6525901012      0.8391025584
 H      4.0781283038     -1.7493772305     -1.5443089736
 H      2.4253047470     -0.3843350940     -2.5639855785
 H      0.4848415611     -1.3353079011      1.8873956456
 H     -0.4944278659     -0.3727766765     -2.0346379826
 H     -2.6497900207      0.3245880791     -2.9245586880
 H     -3.6661024250      2.2207497880     -2.0005644601
 H     -3.9602839876      2.5601114211      0.2799872728
 H     -3.3079966511      1.1420848367      2.1146554500
 H     -1.0591049664      0.2415745451      2.1262963617
 H     -3.6938474115     -1.3013400172      1.9725752362
 H     -3.7307373129     -2.6024496769     -0.1751259736
 H     -3.0280643771     -1.9225813539     -2.2368698654
38
# ORCA AIMD Position Step 8, t=4.00 fs, E_Pot=-772.11535611 Hartree, Unit is Angstrom
 C      1.6553932367      0.6345287983     -0.7498389169
 C      2.4178498968      1.7654657820      0.0207684707
 C      3.3751679450      1.4659475590      0.9188497144
 C      3.7491484983      0.1011240937      1.4553791418
 C      2.6478376952     -0.9732602029      1.5738021765
 C      3.7595757039     -1.0870190036      0.5169584471
 C      3.5083025378     -1.0841148184     -0.9296467954
 C      2.5774938074     -0.3260774193     -1.5129875420
 C      1.2118926133     -0.8329608251      1.2407018969
 C      0.7297591665     -0.1813737672      0.1958064236
 C     -0.7460037017      0.0210889640     -0.0228869909
 C     -1.2428118132     -0.1342012539     -1.3232011709
 C     -2.5800585376      0.2310354647     -1.8511997455
 C     -3.3608987030      1.4216043694     -1.2825267635
 C     -3.5105394112      1.5985123201      0.0606852365
 C     -3.0143470815      0.6346202506      1.1068072181
 C     -1.5429184986      0.3051432892      1.1134595348
 C     -3.4409332105     -0.7832317373      0.9737155904
 C     -3.4344341997     -1.5151450796     -0.1321897204
 C     -2.9802836753     -1.1540283211     -1.4475028251
 H      0.9153305997      1.0390076706     -1.4905614140
 H      2.1613970996      2.7442635027     -0.3115882214
 H      3.8810640546      2.3411780988      1.3380092375
 H      4.4929221375      0.1941890756      2.2536699465
 H      2.8477566321     -1.6521018035      2.3976372197
 H      4.6079038461     -1.6387080573      0.8428331554
 H      4.0744664035     -1.7552493779     -1.5435536826
 H      2.4248982474     -0.3887254554     -2.5624462974
 H      0.4820168502     -1.3281062123      1.8821169823
 H     -0.4863411517     -0.3620229405     -2.0335586565
 H     -2.6550229979      0.3239888951     -2.9208888903
 H     -3.6585022083      2.2166884374     -1.9957743747
 H     -3.9486268582      2.5636572852      0.2689731399
 H     -3.3020994537      1.1438983113      2.1006963023
 H     -1.0614074887      0.2389976399      2.1167715260
 H     -3.6956456442     -1.2935732821      1.9580681098
 H     -3.7330990845     -2.5882185646     -0.1875372072
 H     -3.0326563362     -1.9194398812     -2.2310967904
38
# ORCA AIMD Position Step 9, t=4.50 fs, E_Pot=-772.11343600 Hartree, Unit is Angstrom
 C      1.6587119895      0.6328460344     -0.7488550660
 C      2.4180558632      1.7688601399      0.0281265510
 C      3.3795136132      1.4650694727      0.9187474433
 C      3.7541390252      0.0969693950      1.4578618225
 C      2.6460086787     -0.9724597052      1.5720674539
 C      3.7570845183     -1.0848359666      0.5155642545
 C      3.5099174778     -1.0870886881     -0.9314891323
 C      2.5818651937     -0.3297823405     -1.5122304770
 C      1.2083031931     -0.8332405048      1.2406164720
 C      0.7320032156     -0.1889425231      0.1935302745
 C     -0.7442033032      0.0183830646     -0.0246247722
 C     -1.2417260851     -0.1380730587     -1.3220029924
 C     -2.5758174939      0.2281312676     -1.8506089239
 C     -3.3640947767      1.4197590961     -1.2830917302
 C     -3.5089206903      1.5961828663      0.0599646833
 C     -3.0117628856      0.6326251929      1.1079563861
 C     -1.5392450494      0.3023586037      1.1135303012
 C     -3.4419707218     -0.7827887424      0.9722464177
 C     -3.4343314157     -1.5125850320     -0.1316259315
 C     -2.9773510253     -1.1564044023     -1.4484180433
 H      0.9201511027      1.0237954895     -1.4817496581
 H      2.1543750899      2.7464167782     -0.3079920827
 H      3.8806230268      2.3353860979      1.3329217691
 H      4.4900605614      0.1940728213      2.2508653877
 H      2.8457363553     -1.6538019821      2.3836898481
 H      4.6128935132     -1.6275638771      0.8464344933
 H      4.0716646461     -1.7619692760     -1.5431290765
 H      2.4243032487     -0.3933866071     -2.5629206585
 H      0.4800468955     -1.3210456743      1.8769317870
 H     -0.4775640132     -0.3524251177     -2.0343968829
 H     -2.6589291439      0.3231083572     -2.9183377458
 H     -3.6506515226      2.2111020983     -1.9896027622
 H     -3.9373011222      2.5671509835      0.2600120873
 H     -3.2951100637      1.1424979843      2.0835481894
 H     -1.0646982433      0.2367559421      2.1048376044
 H     -3.6968188096     -1.2841918001      1.9400733377
 H     -3.7349774859     -2.5717986206     -0.1978113949
 H     -3.0366766570     -1.9154371886     -2.2243562768
38
# ORCA AIMD Position Step 10, t=5.00 fs, E_Pot=-772.11078583 Hartree, Unit is Angstrom
 C      1.6619887538      0.6310432670     -0.7478091321
 C      2.4182148412      1.7717140212      0.0353929429
 C      3.3837726021      1.4641766037      0.9186670018
 C      3.7587983520      0.0932600379      1.4601075194
 C      2.6442923013     -0.9717131737      1.5703180739
 C      3.7546340810     -1.0825968311      0.5142418511
 C      3.5114496600     -1.0899343304     -0.9332389411
 C      2.5862066682     -0.3333784483     -1.5112356772
 C      1.2048780831     -0.8335958712      1.2406141123
 C      0.7341950488     -0.1962790609      0.1910431018
 C     -0.7425263647      0.0156489411     -0.0259528970
 C     -1.2407196935     -0.1419159060     -1.3208110027
 C     -2.5718919228      0.2253588898     -1.8499250249
 C     -3.3670813469      1.4177272096     -1.2833399622
 C     -3.5071812551      1.5937998911      0.0586590659
 C     -3.0091951852      0.6309278927      1.1092075478
 C     -1.5353411267      0.2995335055      1.1134059953
 C     -3.4431125095     -0.7822925297      0.9714066538
 C     -3.4341597510     -1.5103433101     -0.1318516627
 C     -2.9743539510     -1.1586640369     -1.4490756327
 H      0.9272636095      1.0093723021     -1.4719661283
 H      2.1477577829      2.7503705900     -0.3039397361
 H      3.8807351478      2.3290356295      1.3284707174
 H      4.4871354960      0.1926052125      2.2476171652
 H      2.8433094146     -1.6556724928      2.3702159994
 H      4.6183420338     -1.6192404132      0.8497788390
 H      4.0698119509     -1.7696217577     -1.5430771329
 H      2.4235404572     -0.3983163220     -2.5652593972
 H      0.4785955083     -1.3144376524      1.8722482686
 H     -0.4683737836     -0.3439818109     -2.0369709252
 H     -2.6613835695      0.3219274194     -2.9170538129
 H     -3.6427934387      2.2044825577     -1.9825157167
 H     -3.9263618312      2.5706188202      0.2532724544
 H     -3.2872458104      1.1381308195      2.0640851508
 H     -1.0685383779      0.2347961536      2.0913737441
 H     -3.6976345255     -1.2737183661      1.9195806060
 H     -3.7366315268     -2.5540582335     -0.2057665969
 H     -3.0401130987     -1.9110984447     -2.2171908924
38
# ORCA AIMD Position Step 11, t=5.50 fs, E_Pot=-772.10670652 Hartree, Unit is Angstrom
 C      1.6652715033      0.6290833012     -0.7466449013
 C      2.4183053587      1.7740219377      0.0425337340
 C      3.3879254711      1.4632273266      0.9186077958
 C      3.7630573374      0.0900301208      1.4620548621
 C      2.6426832616     -0.9709998710      1.5685223080
 C      3.7522699801     -1.0803323574      0.5130058446
 C      3.5129228505     -1.0926666888     -0.9348801152
 C      2.5904854919     -0.3368400544     -1.5100485323
 C      1.2016751302     -0.8340221563      1.2406901527
 C      0.7363191201     -0.2033514658      0.1883188491
 C     -0.7409658147      0.0128789169     -0.0268534535
 C     -1.2397580002     -0.1457350908     -1.3196716086
 C     -2.5683125992      0.2227306113     -1.8491514835
 C     -3.3698139927      1.4154393822     -1.2832380345
 C     -3.5053176454      1.5913686678      0.0567721972
 C     -3.0066149194      0.6295029688      1.1104553862
 C     -1.5312531409      0.2966730775      1.1129928421
 C     -3.4443310688     -0.7816829641      0.9711106856
 C     -3.4338953308     -1.5083525988     -0.1328971389
 C     -2.9712843318     -1.1607502075     -1.4494216712
 H      0.9361667646      0.9961954317     -1.4618318258
 H      2.1416687193      2.7558589944     -0.2992822480
 H      3.8817632053      2.3226357945      1.3249640178
 H      4.4846781283      0.1897665266      2.2444502688
 H      2.8405791737     -1.6580997242      2.3577339088
 H      4.6238966831     -1.6137170851      0.8527014855
 H      4.0689211016     -1.7782073786     -1.5433675552
 H      2.4226587196     -0.4034993941     -2.5691220984
 H      0.4773066852     -1.3085886900      1.8684767511
 H     -0.4591575102     -0.3366590711     -2.0409761176
 H     -2.6622789844      0.3204264094     -2.9170766745
 H     -3.6351897913      2.1974133510     -1.9750592240
 H     -3.9158278276      2.5740241917      0.2488686586
 H     -3.2788047966      1.1312299625      2.0434644186
 H     -1.0723926941      0.2330508722      2.0774573116
 H     -3.6984587636     -1.2628405242      1.8979076127
 H     -3.7383804931     -2.5360506797     -0.2112834962
 H     -3.0429679627     -1.9069984210     -2.2101959406
38
# ORCA AIMD Position Step 12, t=6.00 fs, E_Pot=-772.10107005 Hartree, Unit is Angstrom
 C      1.6686194544      0.6269259609     -0.7452986631
 C      2.4183052306      1.7757927594      0.0495205472
 C      3.3919583925      1.4621814251      0.9185705142
 C      3.7668547829      0.0873043428      1.4636467961
 C      2.6411746333     -0.9703008968      1.5666510994
 C      3.7500415259     -1.0780759578      0.5118711661
 C      3.5143688804     -1.0953113569     -0.9364029538
 C      2.5946706107     -0.3401458208     -1.5087267158
 C      1.1987455609     -0.8345142665      1.2408380378
 C      0.7383627883     -0.2101383117      0.1853349113
 C     -0.7395106676      0.0100620016     -0.0273176243
 C     -1.2388002094     -0.1495396808     -1.3186330276
 C     -2.5651040484      0.2202551896     -1.8482989751
 C     -3.3722515554      1.4128223866     -1.2827572787
 C     -3.5033269144      1.5888970116      0.0543195047
 C     -3.0039826188      0.6283061153      1.1115703182
 C     -1.5270327313      0.2937812258      1.1121891064
 C     -3.4455905508     -0.7808918647      0.9712326409
 C     -3.4335114298     -1.5065247032     -0.1347723480
 C     -2.9681297027     -1.1626093662     -1.4494072135
 H      0.9462523869      0.9847356235     -1.4520521944
 H      2.1362509407      2.7624920382     -0.2938368779
 H      3.8840455056      2.3166694783      1.3226825085
 H      4.4832014548      0.1855563511      2.2418774033
 H      2.8376442425     -1.6614334610      2.3466943845
 H      4.6291253087     -1.6108939074      0.8550174103
 H      4.0689316618     -1.7876468668     -1.5439005023
 H      2.4217291707     -0.4089117842     -2.5740268602
 H      0.4758437134     -1.3037724247      1.8659934473
 H     -0.4503622023     -0.3304048962     -2.0460317198
 H     -2.6615245738      0.3185832944     -2.9183359253
 H     -3.6281002081      2.1905209284     -1.9678146992
 H     -3.9056812295      2.5772708174      0.2468620293
 H     -3.2701623863      1.1224170241      2.0231158717
 H     -1.0756642923      0.2314427267      2.0642912323
 H     -3.6997555677     -1.2523948269      1.8766646372
 H     -3.7405914147     -2.5189492081     -0.2143050933
 H     -3.0452549714     -1.9037081442     -2.2039633088
38
# ORCA AIMD Position Step 13, t=6.50 fs, E_Pot=-772.09460369 Hartree, Unit is Angstrom
 C      1.6721002345      0.6245290581     -0.7437022184
 C      2.4181927525      1.7770448569      0.0563339223
 C      3.3958665170      1.4610042736      0.9185591549
 C      3.7701420686      0.0850990701      1.4648350953
 C      2.6397588832     -0.9696027937      1.5646814099
 C      3.7479977278     -1.0758608939      0.5108513503
 C      3.5158264924     -1.0979038237     -0.9378037898
 C      2.5987350704     -0.3432797023     -1.5073341457
 C      1.1961299994     -0.8350690961      1.2410518407
 C      0.7403168728     -0.2166302087      0.1820712807