      -----------------------------------------------------------      
     |                   =====================                   |     
     |                           x T B                           |     
     |                   =====================                   |     
     |                         S. Grimme                         |     
     |          Mulliken Center for Theoretical Chemistry        |     
     |                    University of Bonn                     |     
      -----------------------------------------------------------      

   * xtb version 6.5.0 (homebrew) compiled by 'nhattrup@GPGGRP-SHANNON.CHEME.CMU.EDU' on 

   xtb is free software: you can redistribute it and/or modify it under
   the terms of the GNU Lesser General Public License as published by
   the Free Software Foundation, either version 3 of the License, or
   (at your option) any later version.
   
   xtb is distributed in the hope that it will be useful,
   but WITHOUT ANY WARRANTY; without even the implied warranty of
   MERCHANTABILITY or FITNESS FOR A PARTICULAR PURPOSE.  See the
   GNU Lesser General Public License for more details.
   
   Cite this work as:
   * C. Bannwarth, E. Caldeweyher, S. Ehlert, A. Hansen, P. Pracht,
     J. Seibert, S. Spicher, S. Grimme, WIREs Comput. Mol. Sci., 2020, 11,
     e01493. DOI: 10.1002/wcms.1493
   
   for GFN2-xTB:
   * C. Bannwarth, S. Ehlert and S. Grimme., J. Chem. Theory Comput., 2019,
     15, 1652-1671. DOI: 10.1021/acs.jctc.8b01176
   for GFN1-xTB:
   * S. Grimme, C. Bannwarth, P. Shushkov, J. Chem. Theory Comput., 2017,
     13, 1989-2009. DOI: 10.1021/acs.jctc.7b00118
   for GFN0-xTB:
   * P. Pracht, E. Caldeweyher, S. Ehlert, S. Grimme, ChemRxiv, 2019, preprint.
     DOI: 10.26434/chemrxiv.8326202.v1
   for GFN-FF:
   * S. Spicher and S. Grimme, Angew. Chem. Int. Ed., 2020, 59, 15665-15673.
     DOI: 10.1002/anie.202004239
   
   for ALPB and GBSA implicit solvation:
   * S. Ehlert, M. Stahn, S. Spicher, S. Grimme, J. Chem. Theory Comput.,
     2021, 17, 4250-4261. DOI: 10.1021/acs.jctc.1c00471
   
   for DFT-D4:
   * E. Caldeweyher, C. Bannwarth and S. Grimme, J. Chem. Phys., 2017,
     147, 034112. DOI: 10.1063/1.4993215
   * E. Caldeweyher, S. Ehlert, A. Hansen, H. Neugebauer, S. Spicher,
     C. Bannwarth and S. Grimme, J. Chem. Phys., 2019, 150, 154122.
     DOI: 10.1063/1.5090222
   * E. Caldeweyher, J.-M. Mewes, S. Ehlert and S. Grimme, Phys. Chem. Chem. Phys.
     2020, 22, 8499-8512. DOI: 10.1039/D0CP00502A
   
   for sTDA-xTB:
   * S. Grimme and C. Bannwarth, J. Chem. Phys., 2016, 145, 054103.
     DOI: 10.1063/1.4959605
   
   in the mass-spec context:
   * V. Asgeirsson, C. Bauer and S. Grimme, Chem. Sci., 2017, 8, 4879.
     DOI: 10.1039/c7sc00601b
   * J. Koopman and S. Grimme, ACS Omega 2019, 4, 12, 15120-15133.
     DOI: 10.1021/acsomega.9b02011
   
   for metadynamics refer to:
   * S. Grimme, J. Chem. Theory Comput., 2019, 155, 2847-2862
     DOI: 10.1021/acs.jctc.9b00143
   
   for SPH calculations refer to:
   * S. Spicher and S. Grimme, J. Chem. Theory Comput., 2021, 17, 1701-1714
     DOI: 10.1021/acs.jctc.0c01306
   
   with help from (in alphabetical order)
   P. Atkinson, C. Bannwarth, F. Bohle, G. Brandenburg, E. Caldeweyher
   M. Checinski, S. Dohm, S. Ehlert, S. Ehrlich, I. Gerasimov, C. Hölzer
   A. Katbashev, J. Koopman, C. Lavigne, S. Lehtola, F. März, M. Müller,
   F. Musil, H. Neugebauer, J. Pisarek, C. Plett, P. Pracht, F. Pultar,
   J. Seibert, P. Shushkov, S. Spicher, M. Stahn, M. Steiner, T. Strunk,
   J. Stückrath, T. Rose, and J. Unsleber
   
 * started run on 2022/07/09 at 18:33:02.223     

           -------------------------------------------------
          |                Calculation Setup                |
           -------------------------------------------------

          program call               : /opt/homebrew/bin/xtb bvl_bpin2_scan_5-0_xtb.xyz --chrg 0 --uhf 0 --opt --input xcontrol_bvl_bpin2_scan_5-0_xtb
          coordinate file            : bvl_bpin2_scan_5-0_xtb.xyz
          omp threads                :                     1

   ID    Z sym.   atoms
    1    6 C      1, 2, 4-7, 10-12, 14, 16, 19-24, 26, 27, 29-31
    2    8 O      3, 8, 18, 25
    3    5 B      9, 17
    4    1 H      13, 15, 28, 32-60
constraining bond 12 31 to    2.0556000 Å, actual value:    1.9387791 Å
constraining bond 10 29 to    2.5000000 Å, actual value:    2.4978455 Å

           -------------------------------------------------
          |                 G F N 2 - x T B                 |
           -------------------------------------------------

        Reference                      10.1021/acs.jctc.8b01176
      * Hamiltonian:
        H0-scaling (s, p, d)           1.850000    2.230000    2.230000
        zeta-weighting                 0.500000
      * Dispersion:
        s8                             2.700000
        a1                             0.520000
        a2                             5.000000
        s9                             5.000000
      * Repulsion:
        kExp                           1.500000    1.000000
        rExp                           1.000000
      * Coulomb:
        alpha                          2.000000
        third order                    shell-resolved
        anisotropic                    true
        a3                             3.000000
        a5                             4.000000
        cn-shift                       1.200000
        cn-exp                         4.000000
        max-rad                        5.000000


          ...................................................
          :                      SETUP                      :
          :.................................................:
          :  # basis functions                 144          :
          :  # atomic orbitals                 144          :
          :  # shells                           88          :
          :  # electrons                       150          :
          :  max. iterations                   250          :
          :  Hamiltonian                  GFN2-xTB          :
          :  restarted?                      false          :
          :  GBSA solvation                  false          :
          :  PC potential                    false          :
          :  electronic temp.          300.0000000     K    :
          :  accuracy                    1.0000000          :
          :  -> integral cutoff          0.2500000E+02      :
          :  -> integral neglect         0.1000000E-07      :
          :  -> SCF convergence          0.1000000E-05 Eh   :
          :  -> wf. convergence          0.1000000E-03 e    :
          :  Broyden damping             0.4000000          :
          ...................................................

 iter      E             dE          RMSdq      gap      omega  full diag
   1    -82.9360242 -0.829360E+02  0.470E+00    2.31       0.0  T
   2    -83.3128482 -0.376824E+00  0.289E+00    2.17       1.0  T
   3    -83.3215468 -0.869863E-02  0.144E+00    2.30       1.0  T
   4    -83.3351651 -0.136184E-01  0.670E-01    2.28       1.0  T
   5    -83.3612171 -0.260520E-01  0.248E-01    2.28       1.0  T
   6    -83.3642021 -0.298504E-02  0.112E-01    2.28       1.0  T
   7    -83.3642819 -0.797531E-04  0.370E-02    2.28       1.0  T
   8    -83.3643219 -0.400493E-04  0.153E-02    2.28       1.0  T
   9    -83.3643310 -0.910230E-05  0.627E-03    2.28       2.1  T
  10    -83.3643320 -0.998382E-06  0.349E-03    2.28       3.7  T
  11    -83.3643322 -0.197181E-06  0.166E-03    2.28       7.8  T
  12    -83.3643324 -0.122859E-06  0.383E-04    2.28      33.7  T
  13    -83.3643324 -0.889713E-09  0.186E-04    2.28      69.4  T

   *** convergence criteria satisfied after 13 iterations ***

         #    Occupation            Energy/Eh            Energy/eV
      -------------------------------------------------------------
         1        2.0000           -0.6878450             -18.7172
       ...           ...                  ...                  ...
        69        2.0000           -0.4026240             -10.9560
        70        2.0000           -0.3975250             -10.8172
        71        2.0000           -0.3938561             -10.7174
        72        2.0000           -0.3933651             -10.7040
        73        2.0000           -0.3925702             -10.6824
        74        2.0000           -0.3625767              -9.8662
        75        2.0000           -0.3316068              -9.0235 (HOMO)
        76                         -0.2479624              -6.7474 (LUMO)
        77                         -0.2185582              -5.9473
        78                         -0.1883178              -5.1244
        79                         -0.1267899              -3.4501
        80                         -0.0978021              -2.6613
       ...                                ...                  ...
       144                          0.6752487              18.3745
      -------------------------------------------------------------
                  HL-Gap            0.0836444 Eh            2.2761 eV
             Fermi-level           -0.2897846 Eh           -7.8854 eV

 SCC (total)                   0 d,  0 h,  0 min,  0.072 sec
 SCC setup                      ...        0 min,  0.000 sec (  0.366%)
 Dispersion                     ...        0 min,  0.001 sec (  0.781%)
 classical contributions        ...        0 min,  0.000 sec (  0.266%)
 integral evaluation            ...        0 min,  0.006 sec (  8.725%)
 iterations                     ...        0 min,  0.037 sec ( 51.010%)
 molecular gradient             ...        0 min,  0.027 sec ( 38.385%)
 printout                       ...        0 min,  0.000 sec (  0.461%)

         :::::::::::::::::::::::::::::::::::::::::::::::::::::
         ::                     SUMMARY                     ::
         :::::::::::::::::::::::::::::::::::::::::::::::::::::
         :: total energy             -82.194018557400 Eh    ::
         :: gradient norm              1.188800155422 Eh/a0 ::
         :: HOMO-LUMO gap              2.276080058602 eV    ::
         ::.................................................::
         :: SCC energy               -83.364332361976 Eh    ::
         :: -> isotropic ES            0.147660547078 Eh    ::
         :: -> anisotropic ES          0.012759532616 Eh    ::
         :: -> anisotropic XC          0.027180396093 Eh    ::
         :: -> dispersion             -0.061311961257 Eh    ::
         :: repulsion energy           1.072032197523 Eh    ::
         :: add. restraining           0.097502607002 Eh    ::
         :: total charge               0.000000000000 e     ::
         :::::::::::::::::::::::::::::::::::::::::::::::::::::

      ----------------------------------------------------------- 
     |                   =====================                   |
     |                        A N C O P T                        |
     |                   =====================                   |
     |               Approximate Normal Coordinate               |
     |                Rational Function Optimizer                |
      ----------------------------------------------------------- 

          ...................................................
          :                      SETUP                      :
          :.................................................:
          :   optimization level            normal          :
          :   max. optcycles                   200          :
          :   ANC micro-cycles                  20          :
          :   degrees of freedom               174          :
          :.................................................:
          :   RF solver                   davidson          :
          :   write xtbopt.log                true          :
          :   linear?                        false          :
          :   energy convergence         0.5000000E-05 Eh   :
          :   grad. convergence          0.1000000E-02 Eh/α :
          :   maximium RF displ.         1.0000000          :
          :   Hlow (freq-cutoff)         0.1000000E-01      :
          :   Hmax (freq-cutoff)         5.0000000          :
          :   S6 in model hess.         20.0000000          :
          ...................................................

generating ANC from model Hessian ...
Using Lindh-Hessian (1995)
 Shifting diagonal of input Hessian by   0.23436945627881850     
 Lowest  eigenvalues of input Hessian
    0.010000    0.130188    0.000000    0.000000    0.000000    0.000000
    0.000000    0.000000    0.234454    0.234502    0.234618    0.235675
    0.236142    0.236587    0.237633    0.237690    0.238916    0.239321
 Highest eigenvalues
    1.946693    2.098535    2.114112    2.135468    8.892707    8.972880


........................................................................
.............................. CYCLE    1 ..............................
........................................................................
   1    -83.3643324 -0.833643E+02  0.612E-05    2.28       0.0  T
   2    -83.3643324 -0.193523E-09  0.379E-05    2.28     340.9  T
   3    -83.3643324 -0.857767E-10  0.150E-05    2.28     858.9  T
     SCC iter.                  ...        0 min,  0.008 sec
     gradient                   ...        0 min,  0.027 sec
 * total energy  :   -82.1940186 Eh     change       -0.2164725E-08 Eh
   gradient norm :     1.1888003 Eh/α   predicted     0.0000000E+00 (-100.00%)
   displ. norm   :     0.2324989 α      lambda       -0.2698072E+00
   maximum displ.:     0.2069173 α      in ANC's #173, #174, #163, ...

........................................................................
.............................. CYCLE    2 ..............................
........................................................................
   1    -83.3545949 -0.833546E+02  0.230E-01    1.65       0.0  T
   2    -83.3545990 -0.411580E-05  0.158E-01    1.66       1.0  T
   3    -83.3535071  0.109187E-02  0.139E-01    1.66       1.0  T
   4    -83.3546748 -0.116766E-02  0.420E-02    1.66       1.0  T
   5    -83.3547922 -0.117391E-03  0.147E-02    1.66       1.0  T
   6    -83.3548072 -0.150329E-04  0.331E-03    1.66       3.9  T
   7    -83.3548072  0.302484E-07  0.188E-03    1.66       6.9  T
   8    -83.3548073 -0.134637E-06  0.433E-04    1.66      29.8  T
   9    -83.3548073 -0.469402E-08  0.208E-04    1.66      62.0  T
     SCC iter.                  ...        0 min,  0.024 sec
     gradient                   ...        0 min,  0.028 sec
 * total energy  :   -82.2553161 Eh     change       -0.6129751E-01 Eh
   gradient norm :     0.6647920 Eh/α   predicted    -0.1430957E+00 ( 133.44%)
   displ. norm   :     0.0820334 α      lambda       -0.5369275E-01
   maximum displ.:     0.0743045 α      in ANC's #173, #174, #172, ...

........................................................................
.............................. CYCLE    3 ..............................
........................................................................
   1    -83.3560197 -0.833560E+02  0.798E-02    1.85       0.0  T
   2    -83.3560430 -0.233206E-04  0.579E-02    1.84       1.0  T
   3    -83.3559944  0.486843E-04  0.356E-02    1.85       1.0  T
   4    -83.3560678 -0.734231E-04  0.115E-02    1.84       1.1  T
   5    -83.3560757 -0.791694E-05  0.167E-03    1.84       7.7  T
   6    -83.3560757 -0.385877E-07  0.109E-03    1.84      11.8  T
   7    -83.3560758 -0.137515E-07  0.607E-04    1.84      21.3  T
   8    -83.3560758 -0.158697E-07  0.268E-04    1.84      48.1  T
     SCC iter.                  ...        0 min,  0.022 sec
     gradient                   ...        0 min,  0.028 sec
 * total energy  :   -82.2825889 Eh     change       -0.2727284E-01 Eh
   gradient norm :     0.0217231 Eh/α   predicted    -0.2702707E-01 (  -0.90%)
   displ. norm   :     0.0227055 α      lambda       -0.3430498E-03
   maximum displ.:     0.0075195 α      in ANC's #117, #37, #123, ...

........................................................................
.............................. CYCLE    4 ..............................
........................................................................
   1    -83.3550672 -0.833551E+02  0.169E-02    1.83       0.0  T
   2    -83.3550682 -0.963338E-06  0.109E-02    1.83       1.2  T
   3    -83.3550645  0.366542E-05  0.921E-03    1.83       1.4  T
   4    -83.3550683 -0.377201E-05  0.405E-03    1.83       3.2  T
   5    -83.3550693 -0.100186E-05  0.658E-04    1.83      19.6  T
   6    -83.3550693 -0.264907E-07  0.273E-04    1.83      47.3  T
   7    -83.3550693 -0.265391E-08  0.103E-04    1.83     124.9  T
     SCC iter.                  ...        0 min,  0.019 sec
     gradient                   ...        0 min,  0.027 sec
 * total energy  :   -82.2829048 Eh     change       -0.3159193E-03 Eh
   gradient norm :     0.0123523 Eh/α   predicted    -0.1995870E-03 ( -36.82%)
   displ. norm   :     0.0457280 α      lambda       -0.4113005E-03
   maximum displ.:     0.0172912 α      in ANC's #1, #37, #117, ...

........................................................................
.............................. CYCLE    5 ..............................
........................................................................
   1    -83.3539244 -0.833539E+02  0.320E-02    1.81       0.0  T
   2    -83.3539275 -0.311369E-05  0.195E-02    1.81       1.0  T
   3    -83.3539252  0.235278E-05  0.787E-03    1.81       1.6  T
   4    -83.3539273 -0.216680E-05  0.393E-03    1.81       3.3  T
   5    -83.3539285 -0.110775E-05  0.746E-04    1.81      17.3  T
   6    -83.3539285 -0.157802E-07  0.487E-04    1.81      26.5  T
   7    -83.3539285 -0.100663E-07  0.173E-04    1.81      74.5  T
     SCC iter.                  ...        0 min,  0.019 sec
     gradient                   ...        0 min,  0.027 sec
 * total energy  :   -82.2831040 Eh     change       -0.1991967E-03 Eh
   gradient norm :     0.0073518 Eh/α   predicted    -0.2060966E-03 (   3.46%)
   displ. norm   :     0.1465782 α      lambda       -0.2819138E-03
   maximum displ.:     0.1426370 α      in ANC's #1, #37, #39, ...

........................................................................
.............................. CYCLE    6 ..............................
........................................................................
   1    -83.3523074 -0.833523E+02  0.920E-02    1.79       0.0  T
   2    -83.3522544  0.529460E-04  0.617E-02    1.79       1.0  T
   3    -83.3521309  0.123566E-03  0.669E-02    1.79       1.0  T
   4    -83.3523398 -0.208918E-03  0.618E-03    1.79       2.1  T
   5    -83.3523429 -0.314553E-05  0.148E-03    1.79       8.7  T
   6    -83.3523430 -0.530195E-07  0.809E-04    1.79      16.0  T
   7    -83.3523430 -0.130118E-07  0.200E-04    1.79      64.6  T
     SCC iter.                  ...        0 min,  0.019 sec
     gradient                   ...        0 min,  0.028 sec
 * total energy  :   -82.2821795 Eh     change        0.9245284E-03 Eh
   gradient norm :     0.0298198 Eh/α   predicted    -0.1440039E-03 (-115.58%)
   displ. norm   :     0.1256541 α      lambda       -0.1952304E-02
   maximum displ.:     0.1236720 α      in ANC's #1, #37, #117, ...

........................................................................
.............................. CYCLE    7 ..............................
........................................................................
   1    -83.3545182 -0.833545E+02  0.790E-02    1.81       0.0  T
   2    -83.3544805  0.377491E-04  0.529E-02    1.81       1.0  T
   3    -83.3543939  0.865541E-04  0.568E-02    1.81       1.0  T
   4    -83.3545425 -0.148604E-03  0.553E-03    1.81       2.3  T
   5    -83.3545451 -0.251525E-05  0.128E-03    1.81      10.1  T
   6    -83.3545451 -0.388496E-07  0.687E-04    1.81      18.8  T
   7    -83.3545451 -0.918924E-08  0.154E-04    1.81      83.6  T
     SCC iter.                  ...        0 min,  0.019 sec
     gradient                   ...        0 min,  0.028 sec
 * total energy  :   -82.2831499 Eh     change       -0.9703918E-03 Eh
   gradient norm :     0.0060357 Eh/α   predicted    -0.9917956E-03 (   2.21%)
   displ. norm   :     0.0095421 α      lambda       -0.2450384E-04
   maximum displ.:     0.0058053 α      in ANC's #37, #1, #39, ...

........................................................................
.............................. CYCLE    8 ..............................
........................................................................
   1    -83.3548520 -0.833549E+02  0.484E-03    1.81       0.0  T
   2    -83.3548520  0.224904E-07  0.299E-03    1.81       4.3  T
   3    -83.3548514  0.599947E-06  0.321E-03    1.81       4.0  T
   4    -83.3548520 -0.652085E-06  0.346E-04    1.81      37.3  T
   5    -83.3548520 -0.787458E-08  0.132E-04    1.81      98.0  T
     SCC iter.                  ...        0 min,  0.014 sec
     gradient                   ...        0 min,  0.027 sec
 * total energy  :   -82.2831703 Eh     change       -0.2045530E-04 Eh
   gradient norm :     0.0031955 Eh/α   predicted    -0.1257120E-04 ( -38.54%)
   displ. norm   :     0.0419334 α      lambda       -0.7623430E-04
   maximum displ.:     0.0268922 α      in ANC's #37, #39, #32, ...

........................................................................
.............................. CYCLE    9 ..............................
........................................................................
   1    -83.3559911 -0.833560E+02  0.209E-02    1.81       0.0  T
   2    -83.3559911 -0.278552E-07  0.125E-02    1.81       1.0  T
   3    -83.3559869  0.417370E-05  0.822E-03    1.81       1.6  T
   4    -83.3559912 -0.432217E-05  0.102E-03    1.81      12.7  T
   5    -83.3559913 -0.639251E-07  0.332E-04    1.81      38.9  T
   6    -83.3559913 -0.172510E-08  0.199E-04    1.81      64.9  T
     SCC iter.                  ...        0 min,  0.017 sec
     gradient                   ...        0 min,  0.028 sec
 * total energy  :   -82.2832199 Eh     change       -0.4952888E-04 Eh
   gradient norm :     0.0055938 Eh/α   predicted    -0.3813611E-04 ( -23.00%)
   displ. norm   :     0.0283642 α      lambda       -0.2765978E-04
   maximum displ.:     0.0183355 α      in ANC's #37, #39, #32, ...

........................................................................
.............................. CYCLE   10 ..............................
........................................................................
   1    -83.3564014 -0.833564E+02  0.138E-02    1.81       0.0  T
   2    -83.3564015 -0.181271E-07  0.816E-03    1.81       1.6  T
   3    -83.3564004  0.102139E-05  0.402E-03    1.81       3.2  T
   4    -83.3564015 -0.105197E-05  0.595E-04    1.81      21.7  T
   5    -83.3564015 -0.213166E-07  0.217E-04    1.81      59.6  T
   6    -83.3564015 -0.715659E-09  0.124E-04    1.81     104.1  T
     SCC iter.                  ...        0 min,  0.017 sec
     gradient                   ...        0 min,  0.027 sec
 * total energy  :   -82.2832388 Eh     change       -0.1892758E-04 Eh
   gradient norm :     0.0039306 Eh/α   predicted    -0.1391114E-04 ( -26.50%)
   displ. norm   :     0.0200052 α      lambda       -0.1507099E-04
   maximum displ.:     0.0122617 α      in ANC's #37, #32, #16, ...

........................................................................
.............................. CYCLE   11 ..............................
........................................................................
   1    -83.3563483 -0.833563E+02  0.936E-03    1.81       0.0  T
   2    -83.3563483 -0.130630E-07  0.555E-03    1.81       2.3  T
   3    -83.3563478  0.475529E-06  0.277E-03    1.81       4.7  T
   4    -83.3563483 -0.483647E-06  0.543E-04    1.81      23.8  T
   5    -83.3563483 -0.184756E-07  0.186E-04    1.81      69.5  T
     SCC iter.                  ...        0 min,  0.014 sec
     gradient                   ...        0 min,  0.028 sec
 * total energy  :   -82.2832496 Eh     change       -0.1084423E-04 Eh
   gradient norm :     0.0014374 Eh/α   predicted    -0.7550695E-05 ( -30.37%)
   displ. norm   :     0.0262497 α      lambda       -0.1225236E-04
   maximum displ.:     0.0128923 α      in ANC's #37, #16, #19, ...

........................................................................
.............................. CYCLE   12 ..............................
........................................................................
   1    -83.3558857 -0.833559E+02  0.124E-02    1.81       0.0  T
   2    -83.3558858 -0.529214E-07  0.743E-03    1.81       1.7  T
   3    -83.3558854  0.363475E-06  0.262E-03    1.81       4.9  T
   4    -83.3558858 -0.387462E-06  0.471E-04    1.81      27.4  T
   5    -83.3558858 -0.106714E-07  0.254E-04    1.81      50.8  T
     SCC iter.                  ...        0 min,  0.014 sec
     gradient                   ...        0 min,  0.028 sec
 * total energy  :   -82.2832598 Eh     change       -0.1020537E-04 Eh
   gradient norm :     0.0027433 Eh/α   predicted    -0.6154478E-05 ( -39.69%)
   displ. norm   :     0.0061298 α      lambda       -0.5189636E-05
   maximum displ.:     0.0019857 α      in ANC's #19, #16, #72, ...

........................................................................
.............................. CYCLE   13 ..............................
........................................................................
   1    -83.3557518 -0.833558E+02  0.309E-03    1.81       0.0  T
   2    -83.3557518  0.268113E-07  0.202E-03    1.81       6.4  T
   3    -83.3557515  0.247260E-06  0.225E-03    1.81       5.7  T
   4    -83.3557518 -0.294130E-06  0.164E-04    1.81      78.9  T
   5    -83.3557518 -0.126833E-08  0.564E-05    1.81     229.1  T
     SCC iter.                  ...        0 min,  0.014 sec
     gradient                   ...        0 min,  0.028 sec
 * total energy  :   -82.2832643 Eh     change       -0.4418818E-05 Eh
   gradient norm :     0.0019516 Eh/α   predicted    -0.2608395E-05 ( -40.97%)
   displ. norm   :     0.0272356 α      lambda       -0.1152159E-04
   maximum displ.:     0.0111659 α      in ANC's #19, #16, #12, ...

........................................................................
.............................. CYCLE   14 ..............................
........................................................................
   1    -83.3554552 -0.833555E+02  0.114E-02    1.81       0.0  T
   2    -83.3554550  0.237483E-06  0.732E-03    1.81       1.8  T
   3    -83.3554513  0.363461E-05  0.816E-03    1.81       1.6  T
   4    -83.3554554 -0.409711E-05  0.513E-04    1.81      25.2  T
   5    -83.3554554 -0.123721E-07  0.181E-04    1.81      71.4  T
   6    -83.3554554 -0.255923E-09  0.126E-04    1.81     102.2  T
     SCC iter.                  ...        0 min,  0.017 sec
     gradient                   ...        0 min,  0.027 sec
 * total energy  :   -82.2832718 Eh     change       -0.7548221E-05 Eh
   gradient norm :     0.0020221 Eh/α   predicted    -0.5771946E-05 ( -23.53%)
   displ. norm   :     0.0045623 α      lambda       -0.3371638E-05
   maximum displ.:     0.0021321 α      in ANC's #19, #16, #12, ...

........................................................................
.............................. CYCLE   15 ..............................
........................................................................
   1    -83.3555684 -0.833556E+02  0.221E-03    1.81       0.0  T
   2    -83.3555684 -0.725294E-09  0.132E-03    1.81       9.8  T
   3    -83.3555683  0.331848E-07  0.758E-04    1.81      17.0  T
   4    -83.3555684 -0.333986E-07  0.183E-04    1.81      70.4  T
     SCC iter.                  ...        0 min,  0.011 sec
     gradient                   ...        0 min,  0.028 sec
 * total energy  :   -82.2832749 Eh     change       -0.3118558E-05 Eh
   gradient norm :     0.0015603 Eh/α   predicted    -0.1688053E-05 ( -45.87%)
   displ. norm   :     0.0570182 α      lambda       -0.2117682E-04
   maximum displ.:     0.0283478 α      in ANC's #19, #16, #12, ...

........................................................................
.............................. CYCLE   16 ..............................
........................................................................
   1    -83.3563405 -0.833563E+02  0.229E-02    1.81       0.0  T
   2    -83.3563406 -0.122320E-06  0.137E-02    1.81       1.0  T
   3    -83.3563398  0.857663E-06  0.382E-03    1.81       3.4  T
   4    -83.3563407 -0.929361E-06  0.721E-04    1.81      17.9  T
   5    -83.3563407 -0.117313E-07  0.508E-04    1.81      25.4  T
     SCC iter.                  ...        0 min,  0.014 sec
     gradient                   ...        0 min,  0.028 sec
 * total energy  :   -82.2832873 Eh     change       -0.1240239E-04 Eh
   gradient norm :     0.0025419 Eh/α   predicted    -0.1058796E-04 ( -14.63%)
   displ. norm   :     0.0051440 α      lambda       -0.4530170E-05
   maximum displ.:     0.0018890 α      in ANC's #37, #19, #16, ...

........................................................................
.............................. CYCLE   17 ..............................
........................................................................
   1    -83.3561380 -0.833561E+02  0.251E-03    1.81       0.0  T
   2    -83.3561380 -0.307159E-08  0.152E-03    1.81       8.5  T
   3    -83.3561379  0.568381E-07  0.104E-03    1.81      12.4  T
   4    -83.3561380 -0.569180E-07  0.288E-04    1.81      44.8  T
   5    -83.3561380 -0.523195E-08  0.739E-05    1.81     174.8  T
     SCC iter.                  ...        0 min,  0.014 sec
     gradient                   ...        0 min,  0.027 sec
 * total energy  :   -82.2832913 Eh     change       -0.3922201E-05 Eh
   gradient norm :     0.0017071 Eh/α   predicted    -0.2278928E-05 ( -41.90%)
   displ. norm   :     0.0348926 α      lambda       -0.1108400E-04
   maximum displ.:     0.0150234 α      in ANC's #19, #16, #12, ...

........................................................................
.............................. CYCLE   18 ..............................
........................................................................
   1    -83.3553663 -0.833554E+02  0.120E-02    1.81       0.0  T
   2    -83.3553662  0.154988E-06  0.758E-03    1.81       1.7  T
   3    -83.3553626  0.359410E-05  0.806E-03    1.81       1.6  T
   4    -83.3553665 -0.391922E-05  0.112E-03    1.81      11.5  T
   5    -83.3553666 -0.705368E-07  0.296E-04    1.81      43.6  T
   6    -83.3553666 -0.240587E-08  0.128E-04    1.81     100.8  T
     SCC iter.                  ...        0 min,  0.016 sec
     gradient                   ...        0 min,  0.028 sec
 * total energy  :   -82.2832978 Eh     change       -0.6524842E-05 Eh
   gradient norm :     0.0016341 Eh/α   predicted    -0.5572354E-05 ( -14.60%)
   displ. norm   :     0.0075455 α      lambda       -0.2325690E-05
   maximum displ.:     0.0031063 α      in ANC's #16, #19, #12, ...

........................................................................
.............................. CYCLE   19 ..............................
........................................................................
   1    -83.3555531 -0.833556E+02  0.371E-03    1.81       0.0  T
   2    -83.3555531 -0.257322E-08  0.222E-03    1.81       5.8  T
   3    -83.3555530  0.460334E-07  0.929E-04    1.81      13.9  T
   4    -83.3555531 -0.462033E-07  0.233E-04    1.81      55.3  T
     SCC iter.                  ...        0 min,  0.011 sec
     gradient                   ...        0 min,  0.028 sec
 * total energy  :   -82.2833005 Eh     change       -0.2698082E-05 Eh
   gradient norm :     0.0007914 Eh/α   predicted    -0.1164888E-05 ( -56.83%)
   displ. norm   :     0.0191652 α      lambda       -0.3116857E-05
   maximum displ.:     0.0080542 α      in ANC's #16, #19, #12, ...

   *** GEOMETRY OPTIMIZATION CONVERGED AFTER 19 ITERATIONS ***

------------------------------------------------------------------------
 total energy gain   :        -0.0892819 Eh      -56.0253 kcal/mol
 total RMSD          :         0.0402039 a0        0.0213 Å
 total power (kW/mol):       -12.3373507 (step) -232.8756 (real)
------------------------------------------------------------------------

 ANCopt (total)                0 d,  0 h,  0 min,  1.007 sec
 optimizer setup                ...        0 min,  0.000 sec (  0.009%)
 model hessian                  ...        0 min,  0.032 sec (  3.143%)
 ANC generation                 ...        0 min,  0.003 sec (  0.268%)
 coordinate transformation      ...        0 min,  0.000 sec (  0.026%)
 single point calculation       ...        0 min,  0.965 sec ( 95.868%)
 optimization log               ...        0 min,  0.004 sec (  0.388%)
 hessian update                 ...        0 min,  0.000 sec (  0.043%)
 rational function              ...        0 min,  0.002 sec (  0.177%)

================
 final structure:
================
60
 xtb: 6.5.0 (homebrew)
C            3.28364160689634      -38.06008310951306       16.14603361059952
C            3.60102182291744      -38.25520708601444       17.62699484739409
O            3.23748866119591      -37.08359629428127       18.35333386242289
C            2.74335626398924      -39.40271931564094       18.17682549936251
C            5.12706077317585      -38.42281252079197       17.96296537607878
C            5.57988010364512      -39.86094815082227       18.20563009948204
C            6.04111230883834      -37.77871539089002       16.91236660874028
O            5.27818187719919      -37.67068874369823       19.16497534638278
B            4.19434366359923      -36.84240660293620       19.30572938595618
C            4.04626624408365      -35.80856293525893       20.44621903520217
C            5.07817843428658      -35.57402844615557       21.30861679467558
C            5.12370365380546      -34.73265227928086       22.42835560913726
H            6.08007491502357      -34.57062760487252       22.90249191916464
C            3.95636131666828      -34.01589501009738       23.06488903542317
H            4.17114840095518      -33.75945301312510       24.10198549731269
C            2.60767835003558      -34.65713168094674       22.98721344297408
B            1.82222316745783      -34.85646086867394       24.31984702006638
O            2.28792201422615      -34.47174391128656       25.54758433466802
C            1.39620683703080      -34.95870871755958       26.54988668770713
C            1.20162809573012      -33.88901871918034       27.62211091856724
C            2.06447565000907      -36.18737075342402       27.17996047861834
C            0.10342373588078      -35.31945503981018       25.73087131812455
C           -0.93477885646512      -34.19022394372587       25.72413418197571
C           -0.57774326446253      -36.62315658795986       26.14073357281045
O            0.59020247186483      -35.44113374422916       24.39523668559838
C            2.08803839654169      -35.07324717066726       21.83015897161732
C            2.75310910793825      -34.97184580213283       20.49349830690231
H            2.08483657261912      -35.38625441674922       19.73603852934317
C            3.07067386748780      -33.53665304832546       20.09530670606713
C            3.81169567988715      -32.68274687306940       20.83240740410864
C            4.29359500433563      -32.87923492690500       22.14167460256161
H            4.99988254837141      -32.16030104446226       22.52946202767502
H            2.20632809560718      -37.97747517057353       16.02454893201195
H            3.63765879804964      -38.91146687356493       15.57083743250888
H            3.73572995399991      -37.15079201518510       15.76337045280643
H            1.69518387366215      -39.13671709595613       18.06021315384088
H            2.93841907106518      -39.54027047602778       19.23749333966714
H            2.93489754349839      -40.32882439728049       17.64305682854231
H            5.38788422955184      -40.47092398454075       17.32704262799194
H            5.07364992923671      -40.29012845062330       19.06414286416810
H            6.64778125729319      -39.86303284038870       18.40961643735496
H            6.01161953960366      -38.32820698628230       15.97619332845742
H            7.06000116397094      -37.78150113792067       17.29294741845115
H            5.74904990554253      -36.74526649963735       16.74305197648611
H            5.99278151747057      -36.12401682844395       21.11219064612063
H            2.14654026139819      -33.72788195279583       28.13518991741161
H            0.45950001489057      -34.21390348203489       28.34629832997992
H            0.89204177111590      -32.94585570717371       27.18372577034943
H            3.02921857722322      -35.88777909657319       27.58308029915374
H            2.23897424491268      -36.94825073705531       26.42335720148576
H            1.45790866460075      -36.59689444599196       27.98206196794939
H           -1.38369459678286      -34.06187930689888       26.70443679669051
H           -1.71296700023116      -34.44347417919074       25.00787481527816
H           -0.47504227981506      -33.25891599355585       25.40307162373404
H           -0.87952430488276      -36.58019260267488       27.18364824977531
H            0.07926628464759      -37.47288133033668       25.98656965004167
H           -1.46133442662063      -36.76542303104644       25.52359548960221
H            1.11260437362234      -35.53989112597441       21.85512411395046
H            2.80613410524712      -33.26318906368423       19.08519984329727
H            4.07826000735447      -31.72888143610102       20.38833277617249

 Bond Distances (Angstroems)
 ---------------------------
C1-C2=1.5271         C1-H33=1.0873        C1-H34=1.0868        C1-H35=1.0852        C2-C1=1.5271         C2-O3=1.4256         
C2-C4=1.5345         C2-C5=1.5715         O3-C2=1.4256         O3-B9=1.3714         C4-C2=1.5345         C4-H36=1.0877        
C4-H37=1.0872        C4-H38=1.0859        C5-C2=1.5715         C5-C6=1.5271         C5-C7=1.5343         C5-O8=1.4260         
C6-C5=1.5271         C6-H39=1.0867        C6-H40=1.0851        C6-H41=1.0872        C7-C5=1.5343         C7-H42=1.0859        
C7-H43=1.0877        C7-H44=1.0872        O8-C5=1.4260         O8-B9=1.3713         B9-O3=1.3714         B9-O8=1.3713         
B9-C10=1.5464        C10-B9=1.5464        C10-C11=1.3651       C10-C27=1.5410       C11-C10=1.3651       C11-C12=1.4014       
C11-H45=1.0852       C12-C11=1.4014       C12-H13=1.0797       C12-C14=1.5105       H13-C12=1.0797       C14-C12=1.5105       
C14-H15=1.0897       C14-C16=1.4954       C14-C31=1.5027       H15-C14=1.0897       C16-C14=1.4954       C16-B17=1.5597       
C16-C26=1.3349       B17-C16=1.5597       B17-O18=1.3683       B17-O25=1.3658       O18-B17=1.3683       O18-C19=1.4272       
C19-O18=1.4272       C19-C20=1.5270       C19-C21=1.5340       C19-C22=1.5723       C20-C19=1.5270       C20-H46=1.0872       
C20-H47=1.0866       C20-H48=1.0852       C21-C19=1.5340       C21-H49=1.0877       C21-H50=1.0871       C21-H51=1.0858       
C22-C19=1.5723       C22-C23=1.5340       C22-C24=1.5270       C22-O25=1.4268       C23-C22=1.5340       C23-H52=1.0858       
C23-H53=1.0875       C23-H54=1.0871       C24-C22=1.5270       C24-H55=1.0865       C24-H56=1.0851       C24-H57=1.0871       
O25-B17=1.3658       O25-C22=1.4268       C26-C16=1.3349       C26-C27=1.4964       C26-H58=1.0816       C27-C10=1.5410       
C27-C26=1.4964       C27-H28=1.0918       C27-C29=1.5229       H28-C27=1.0918       C29-C27=1.5229       C29-C30=1.3497       
C29-H59=1.0794       C30-C29=1.3497       C30-C31=1.4089       C30-H60=1.0854       C31-C14=1.5027       C31-C30=1.4089       
C31-H32=1.0799       H32-C31=1.0799       H33-C1=1.0873        H34-C1=1.0868        H35-C1=1.0852        H36-C4=1.0877        
H37-C4=1.0872        H38-C4=1.0859        H39-C6=1.0867        H40-C6=1.0851        H41-C6=1.0872        H42-C7=1.0859        
H43-C7=1.0877        H44-C7=1.0872        H45-C11=1.0852       H46-C20=1.0872       H47-C20=1.0866       H48-C20=1.0852       
H49-C21=1.0877       H50-C21=1.0871       H51-C21=1.0858       H52-C23=1.0858       H53-C23=1.0875       H54-C23=1.0871       
H55-C24=1.0865       H56-C24=1.0851       H57-C24=1.0871       H58-C26=1.0816       H59-C29=1.0794       H60-C30=1.0854       
 C  H  Rav=1.0860 sigma=0.0026  Rmin=1.0794  Rmax=1.0918    32
 C  B  Rav=1.5531 sigma=0.0066  Rmin=1.5464  Rmax=1.5597     2
 C  C  Rav=1.4913 sigma=0.0706  Rmin=1.3349  Rmax=1.5723    21
 O  B  Rav=1.3692 sigma=0.0023  Rmin=1.3658  Rmax=1.3714     4
 O  C  Rav=1.4264 sigma=0.0006  Rmin=1.4256  Rmax=1.4272     4

 selected bond angles (degree)
 --------------------
H33-C1-C2=108.90               H34-C1-C2=110.21               H34-C1-H33=108.85              H35-C1-C2=111.25               
H35-C1-H33=108.04              H35-C1-H34=109.52              O3-C2-C1=109.64                C4-C2-C1=109.08                
C4-C2-O3=106.83                C5-C2-C1=115.01                C5-C2-O3=103.08                C5-C2-C4=112.73                
B9-O3-C2=108.69                H36-C4-C2=108.50               H37-C4-C2=110.11               H37-C4-H36=107.97              
H38-C4-C2=111.29               H38-C4-H36=109.02              H38-C4-H37=109.88              C6-C5-C2=114.98                
C7-C5-C2=112.79                C7-C5-C6=109.12                O8-C5-C2=103.11                O8-C5-C6=109.35                
O8-C5-C7=107.02                H39-C6-C5=110.35               H40-C6-C5=111.09               H40-C6-H39=109.59              
H41-C6-C5=108.84               H41-C6-H39=108.91              H41-C6-H40=108.00              H42-C7-C5=111.21               
H43-C7-C5=108.51               H43-C7-H42=109.01              H44-C7-C5=110.22               H44-C7-H42=109.84              
H44-C7-H43=107.97              B9-O8-C5=108.74                O8-B9-O3=111.96                C10-B9-O3=124.26               
C10-B9-O8=123.72               C11-C10-B9=120.56              C27-C10-B9=117.77              C27-C10-C11=121.44             

 selected dihedral angles (degree)
 ---------------------------------
O3-C2-C1-H33=294.33           O3-C2-C1-H34=174.98           O3-C2-C1-H35= 53.30           C4-C2-C1-H33= 50.99           
C4-C2-C1-H34=291.64           C4-C2-C1-H35=169.96           C5-C2-C1-H33=178.75           C5-C2-C1-H34= 59.41           
C5-C2-C1-H35=297.73           B9-O3-C2-C1=219.51            B9-O3-C2-C4=101.44            B9-O3-C2-C5=342.45            
H36-C4-C2-C1=299.35           H36-C4-C2-O3= 57.78           H36-C4-C2-C5=170.30           H37-C4-C2-C1=181.38           
H37-C4-C2-O3=299.82           H37-C4-C2-C5= 52.34           H38-C4-C2-C1= 59.29           H38-C4-C2-O3=177.72           
H38-C4-C2-C5=290.25           C6-C5-C2-C1=258.95            C6-C5-C2-O3=139.66            C6-C5-C2-C4= 24.85            
C7-C5-C2-C1= 24.93            C7-C5-C2-O3=265.65            C7-C5-C2-C4=150.84            O8-C5-C2-C1=140.01            
O8-C5-C2-O3= 20.72            O8-C5-C2-C4=265.92            H39-C6-C5-C2= 59.49           H39-C6-C5-C7=291.63           
H39-C6-C5-O8=174.89           H40-C6-C5-C2=297.74           H40-C6-C5-C7=169.88           H40-C6-C5-O8= 53.14           
H41-C6-C5-C2=178.96           H41-C6-C5-C7= 51.10           H41-C6-C5-O8=294.35           H42-C7-C5-C2=290.20           
H42-C7-C5-C6= 59.28           H42-C7-C5-O8=177.50           H43-C7-C5-C2=170.31           H43-C7-C5-C6=299.39           
H43-C7-C5-O8= 57.61           H44-C7-C5-C2= 52.27           H44-C7-C5-C6=181.35           H44-C7-C5-O8=299.57           
B9-O8-C5-C2=343.18            B9-O8-C5-C6=220.41            B9-O8-C5-C7=102.34            O8-B9-O3-C2=  7.99            
C10-B9-O3-C2=190.75           O3-B9-O8-C5=  6.71            C10-B9-O8-C5=183.96           C11-C10-B9-O3=183.82          
C11-C10-B9-O8=  6.90          C27-C10-B9-O3=358.44          C27-C10-B9-O8=181.52          
           -------------------------------------------------
          |                Final Singlepoint                |
           -------------------------------------------------

          ...................................................
          :                      SETUP                      :
          :.................................................:
          :  # basis functions                 144          :
          :  # atomic orbitals                 144          :
          :  # shells                           88          :
          :  # electrons                       150          :
          :  max. iterations                   250          :
          :  Hamiltonian                  GFN2-xTB          :
          :  restarted?                      false          :
          :  GBSA solvation                  false          :
          :  PC potential                    false          :
          :  electronic temp.          300.0000000     K    :
          :  accuracy                    1.0000000          :
          :  -> integral cutoff          0.2500000E+02      :
          :  -> integral neglect         0.1000000E-07      :
          :  -> SCF convergence          0.1000000E-05 Eh   :
          :  -> wf. convergence          0.1000000E-03 e    :
          :  Broyden damping             0.4000000          :
          ...................................................

 iter      E             dE          RMSdq      gap      omega  full diag
   1    -83.3555531 -0.833556E+02  0.748E-05    1.81       0.0  T
   2    -83.3555531  0.208416E-09  0.833E-05    1.81     154.9  T
   3    -83.3555531 -0.376474E-09  0.296E-05    1.81     436.6  T

   *** convergence criteria satisfied after 3 iterations ***

         #    Occupation            Energy/Eh            Energy/eV
      -------------------------------------------------------------
         1        2.0000           -0.6874754             -18.7072
       ...           ...                  ...                  ...
        69        2.0000           -0.4010969             -10.9144
        70        2.0000           -0.3971391             -10.8067
        71        2.0000           -0.3949864             -10.7481
        72        2.0000           -0.3935306             -10.7085
        73        2.0000           -0.3924425             -10.6789
        74        2.0000           -0.3642558              -9.9119
        75        2.0000           -0.3283217              -8.9341 (HOMO)
        76                         -0.2616865              -7.1209 (LUMO)
        77                         -0.2182718              -5.9395
        78                         -0.1874596              -5.1010
        79                         -0.1381217              -3.7585
        80                         -0.0971387              -2.6433
       ...                                ...                  ...
       144                          0.6749977              18.3676
      -------------------------------------------------------------
                  HL-Gap            0.0666352 Eh            1.8132 eV
             Fermi-level           -0.2950041 Eh           -8.0275 eV

 SCC (total)                   0 d,  0 h,  0 min,  0.043 sec
 SCC setup                      ...        0 min,  0.000 sec (  0.531%)
 Dispersion                     ...        0 min,  0.000 sec (  0.870%)
 classical contributions        ...        0 min,  0.000 sec (  0.401%)
 integral evaluation            ...        0 min,  0.006 sec ( 13.852%)
 iterations                     ...        0 min,  0.009 sec ( 20.179%)
 molecular gradient             ...        0 min,  0.028 sec ( 63.384%)
 printout                       ...        0 min,  0.000 sec (  0.776%)

         :::::::::::::::::::::::::::::::::::::::::::::::::::::
         ::                     SUMMARY                     ::
         :::::::::::::::::::::::::::::::::::::::::::::::::::::
         :: total energy             -82.283300486538 Eh    ::
         :: gradient norm              0.000791117904 Eh/a0 ::
         :: HOMO-LUMO gap              1.813235706142 eV    ::
         ::.................................................::
         :: SCC energy               -83.355553066536 Eh    ::
         :: -> isotropic ES            0.147633437525 Eh    ::
         :: -> anisotropic ES          0.012749336952 Eh    ::
         :: -> anisotropic XC          0.027396286831 Eh    ::
         :: -> dispersion             -0.061921986159 Eh    ::
         :: repulsion energy           1.071253137593 Eh    ::
         :: add. restraining           0.000206147793 Eh    ::
         :: total charge              -0.000000000000 e     ::
         :::::::::::::::::::::::::::::::::::::::::::::::::::::

           -------------------------------------------------
          |                Property Printout                |
           -------------------------------------------------

    * Orbital Energies and Occupations

         #    Occupation            Energy/Eh            Energy/eV
      -------------------------------------------------------------
         1        2.0000           -0.6874754             -18.7072
       ...           ...                  ...                  ...
        63        2.0000           -0.4363584             -11.8739
        64        2.0000           -0.4278533             -11.6425
        65        2.0000           -0.4250045             -11.5650
        66        2.0000           -0.4198662             -11.4251
        67        2.0000           -0.4180012             -11.3744
        68        2.0000           -0.4120022             -11.2112
        69        2.0000           -0.4010969             -10.9144
        70        2.0000           -0.3971391             -10.8067
        71        2.0000           -0.3949864             -10.7481
        72        2.0000           -0.3935306             -10.7085
        73        2.0000           -0.3924425             -10.6789
        74        2.0000           -0.3642558              -9.9119
        75        2.0000           -0.3283217              -8.9341 (HOMO)
        76                         -0.2616865              -7.1209 (LUMO)
        77                         -0.2182718              -5.9395
        78                         -0.1874596              -5.1010
        79                         -0.1381217              -3.7585
        80                         -0.0971387              -2.6433
        81                         -0.0821360              -2.2350
        82                          0.0092617               0.2520
        83                          0.0154949               0.4216
        84                          0.0287866               0.7833
        85                          0.0320889               0.8732
        86                          0.0571270               1.5545
       ...                                ...                  ...
       144                          0.6749977              18.3676
      -------------------------------------------------------------
                  HL-Gap            0.0666352 Eh            1.8132 eV
             Fermi-level           -0.2950041 Eh           -8.0275 eV

     #   Z          covCN         q      C6AA      α(0)
     1   6 C        3.755    -0.116    22.786     6.806
     2   6 C        3.860     0.129    18.446     6.108
     3   8 O        1.638    -0.375    20.378     6.093
     4   6 C        3.755    -0.116    22.767     6.804
     5   6 C        3.859     0.130    18.444     6.108
     6   6 C        3.755    -0.117    22.792     6.807
     7   6 C        3.755    -0.115    22.762     6.803
     8   8 O        1.638    -0.376    20.405     6.097
     9   5 B        2.659     0.430    15.589     6.647
    10   6 C        2.868    -0.090    30.250     9.016
    11   6 C        2.892    -0.031    28.778     8.795
    12   6 C        3.273    -0.024    27.213     8.407
    13   1 H        0.926     0.032     2.562     2.503
    14   6 C        3.863    -0.006    20.642     6.461
    15   1 H        0.925     0.049     2.329     2.386
    16   6 C        2.864    -0.086    30.145     9.000
    17   5 B        2.662     0.431    15.567     6.641
    18   8 O        1.638    -0.372    20.331     6.086
    19   6 C        3.859     0.129    18.457     6.110
    20   6 C        3.755    -0.117    22.800     6.808
    21   6 C        3.755    -0.116    22.780     6.806
    22   6 C        3.861     0.129    18.457     6.110
    23   6 C        3.755    -0.117    22.787     6.807
    24   6 C        3.755    -0.118    22.808     6.810
    25   8 O        1.638    -0.370    20.279     6.079
    26   6 C        2.900    -0.023    28.583     8.766
    27   6 C        3.858    -0.018    20.863     6.496
    28   1 H        0.924     0.047     2.360     2.402
    29   6 C        2.895    -0.036    28.888     8.812
    30   6 C        2.888    -0.035    28.875     8.810
    31   6 C        3.275    -0.020    27.096     8.385
    32   1 H        0.926     0.032     2.558     2.501
    33   1 H        0.925     0.053     2.277     2.360
    34   1 H        0.925     0.038     2.470     2.457
    35   1 H        0.925     0.051     2.307     2.375
    36   1 H        0.925     0.051     2.303     2.373
    37   1 H        0.925     0.043     2.408     2.427
    38   1 H        0.925     0.041     2.434     2.440
    39   1 H        0.925     0.039     2.466     2.456
    40   1 H        0.925     0.052     2.301     2.372
    41   1 H        0.925     0.053     2.280     2.362
    42   1 H        0.925     0.042     2.429     2.437
    43   1 H        0.925     0.051     2.311     2.377
    44   1 H        0.925     0.043     2.413     2.429
    45   1 H        0.925     0.037     2.488     2.466
    46   1 H        0.925     0.054     2.270     2.356
    47   1 H        0.925     0.040     2.451     2.448
    48   1 H        0.925     0.052     2.296     2.369
    49   1 H        0.925     0.052     2.297     2.370
    50   1 H        0.925     0.044     2.398     2.422
    51   1 H        0.925     0.043     2.416     2.430
    52   1 H        0.925     0.043     2.413     2.429
    53   1 H        0.925     0.053     2.286     2.364
    54   1 H        0.925     0.044     2.399     2.422
    55   1 H        0.925     0.040     2.450     2.448
    56   1 H        0.925     0.052     2.293     2.368
    57   1 H        0.925     0.055     2.261     2.352
    58   1 H        0.925     0.038     2.477     2.461
    59   1 H        0.926     0.029     2.605     2.524
    60   1 H        0.925     0.026     2.639     2.540

 Mol. C6AA /au·bohr⁶  :      33256.845443
 Mol. C8AA /au·bohr⁸  :     771384.329051
 Mol. α(0) /au        :        276.906384


Wiberg/Mayer (AO) data.
largest (>0.10) Wiberg bond orders for each atom

 ---------------------------------------------------------------------------
     #   Z sym  total        # sym  WBO       # sym  WBO       # sym  WBO
 ---------------------------------------------------------------------------
     1   6 C    3.994 --     2 C    0.996    34 H    0.985    33 H    0.983
                            35 H    0.983
     2   6 C    3.944 --     1 C    0.996     4 C    0.990     3 O    0.956
                             5 C    0.937
     3   8 O    2.221 --     9 B    1.115     2 C    0.956
     4   6 C    3.994 --     2 C    0.990    38 H    0.985    37 H    0.984
                            36 H    0.983
     5   6 C    3.944 --     6 C    0.996     7 C    0.990     8 O    0.955
                             2 C    0.937
     6   6 C    3.994 --     5 C    0.996    39 H    0.985    41 H    0.983
                            40 H    0.982
     7   6 C    3.995 --     5 C    0.990    42 H    0.985    44 H    0.984
                            43 H    0.983
     8   8 O    2.220 --     9 B    1.115     5 C    0.955
     9   5 B    3.383 --     8 O    1.115     3 O    1.115    10 C    1.026
    10   6 C    3.965 --    11 C    1.597     9 B    1.026    27 C    0.953
                            31 C    0.132    29 C    0.113
    11   6 C    3.991 --    10 C    1.597    12 C    1.321    45 H    0.958
    12   6 C    3.937 --    11 C    1.321    13 H    0.973    14 C    0.945
                            31 C    0.486    29 C    0.129
    13   1 H    0.999 --    12 C    0.973
    14   6 C    3.985 --    16 C    1.012    15 H    0.966    31 C    0.965
                            12 C    0.945
    15   1 H    0.997 --    14 C    0.966
    16   6 C    3.977 --    26 C    1.839    14 C    1.012    17 B    1.000
    17   5 B    3.377 --    25 O    1.133    18 O    1.127    16 C    1.000
    18   8 O    2.233 --    17 B    1.127    19 C    0.953
    19   6 C    3.943 --    20 C    0.997    21 C    0.991    18 O    0.953
                            22 C    0.936
    20   6 C    3.994 --    19 C    0.997    47 H    0.984    46 H    0.983
                            48 H    0.982
    21   6 C    3.994 --    19 C    0.991    51 H    0.984    50 H    0.984
                            49 H    0.983
    22   6 C    3.942 --    24 C    0.996    23 C    0.991    25 O    0.953
                            19 C    0.936
    23   6 C    3.995 --    22 C    0.991    52 H    0.984    54 H    0.984
                            53 H    0.983
    24   6 C    3.994 --    22 C    0.996    55 H    0.985    57 H    0.982
                            56 H    0.982
    25   8 O    2.237 --    17 B    1.133    22 C    0.953
    26   6 C    3.985 --    16 C    1.839    27 C    1.005    58 H    0.967
    27   6 C    3.994 --    26 C    1.005    29 C    0.981    28 H    0.972
                            10 C    0.953
    28   1 H    0.998 --    27 C    0.972
    29   6 C    3.978 --    30 C    1.680    27 C    0.981    59 H    0.972
                            12 C    0.129    10 C    0.113
    30   6 C    3.992 --    29 C    1.680    31 C    1.279    60 H    0.961
    31   6 C    3.923 --    30 C    1.279    32 H    0.974    14 C    0.965
                            12 C    0.486    10 C    0.132
    32   1 H    0.999 --    31 C    0.974
    33   1 H    0.997 --     1 C    0.983
    34   1 H    0.998 --     1 C    0.985
    35   1 H    0.997 --     1 C    0.983
    36   1 H    0.997 --     4 C    0.983
    37   1 H    0.998 --     4 C    0.984
    38   1 H    0.998 --     4 C    0.985
    39   1 H    0.998 --     6 C    0.985
    40   1 H    0.997 --     6 C    0.982
    41   1 H    0.997 --     6 C    0.983
    42   1 H    0.998 --     7 C    0.985
    43   1 H    0.997 --     7 C    0.983
    44   1 H    0.998 --     7 C    0.984
    45   1 H    0.998 --    11 C    0.958
    46   1 H    0.997 --    20 C    0.983
    47   1 H    0.998 --    20 C    0.984
    48   1 H    0.997 --    20 C    0.982
    49   1 H    0.997 --    21 C    0.983
    50   1 H    0.998 --    21 C    0.984
    51   1 H    0.998 --    21 C    0.984
    52   1 H    0.998 --    23 C    0.984
    53   1 H    0.997 --    23 C    0.983
    54   1 H    0.998 --    23 C    0.984
    55   1 H    0.998 --    24 C    0.985
    56   1 H    0.997 --    24 C    0.982
    57   1 H    0.997 --    24 C    0.982
    58   1 H    0.998 --    26 C    0.967
    59   1 H    0.999 --    29 C    0.972
    60   1 H    0.999 --    30 C    0.961
 ---------------------------------------------------------------------------

Topologies differ in total number of bonds
Writing topology from bond orders to xtbtopo.mol

molecular dipole:
                 x           y           z       tot (Debye)
 q only:       -0.273      -0.386       0.339
   full:       -0.125      -0.464       0.260       1.388
molecular quadrupole (traceless):
                xx          xy          yy          xz          yz          zz
 q only:      -51.234      23.407      35.171     -24.521     -50.025      16.063
  q+dip:      -51.578      10.014      46.023     -15.500     -45.172       5.555
   full:      -52.211       8.909      47.597     -17.268     -46.327       4.614

           -------------------------------------------------
          |                Geometry Summary                 |
           -------------------------------------------------

      molecular mass/u    :      382.1099696
   center of mass at/Å    :        2.9704950     -35.8847704      21.8189608
  moments of inertia/u·Å² :        0.1437093E+04   0.6322813E+04   0.6792319E+04
rotational constants/cm⁻¹ :        0.1173037E-01   0.2666160E-02   0.2481867E-02

 * 56 selected distances

     #   Z          #   Z                                           value/Å
     1   6 C        2   6 C                                       1.5271052
     2   6 C        3   8 O                                       1.4256216
     2   6 C        4   6 C                                       1.5344995
     5   6 C        6   6 C                                       1.5271431
     5   6 C        7   6 C                                       1.5343108
     5   6 C        8   8 O                                       1.4259580
     3   8 O        9   5 B                                       1.3714232
     8   8 O        9   5 B                                       1.3713383
     9   5 B       10   6 C                                       1.5464400
    10   6 C       11   6 C                                       1.3651298
    11   6 C       12   6 C                                       1.4013571
    12   6 C       13   1 H                                       1.0796775
    14   6 C       15   1 H                                       1.0897088
    16   6 C       17   5 B                                       1.5596745 (max)
    17   5 B       18   8 O                                       1.3682916
    18   8 O       19   6 C                                       1.4272004
    19   6 C       20   6 C                                       1.5270111
    19   6 C       21   6 C                                       1.5340101
    22   6 C       23   6 C                                       1.5339730
    22   6 C       24   6 C                                       1.5269622
    17   5 B       25   8 O                                       1.3657970
    22   6 C       25   8 O                                       1.4267724
    16   6 C       26   6 C                                       1.3348982
    27   6 C       28   1 H                                       1.0918188
    29   6 C       30   6 C                                       1.3496618
    14   6 C       31   6 C                                       1.5026803
    30   6 C       31   6 C                                       1.4089058
    31   6 C       32   1 H                                       1.0798552
     1   6 C       33   1 H                                       1.0872843
     1   6 C       34   1 H                                       1.0867536
     1   6 C       35   1 H                                       1.0851845
     4   6 C       36   1 H                                       1.0876678
     4   6 C       37   1 H                                       1.0871919
     4   6 C       38   1 H                                       1.0859410
     6   6 C       39   1 H                                       1.0866688
     6   6 C       40   1 H                                       1.0851309
     6   6 C       41   1 H                                       1.0872110
     7   6 C       42   1 H                                       1.0859242
     7   6 C       43   1 H                                       1.0876508
     7   6 C       44   1 H                                       1.0871912
    11   6 C       45   1 H                                       1.0851587
    20   6 C       46   1 H                                       1.0872324
    20   6 C       47   1 H                                       1.0866240
    20   6 C       48   1 H                                       1.0851645
    21   6 C       49   1 H                                       1.0876534
    21   6 C       50   1 H                                       1.0871232
    21   6 C       51   1 H                                       1.0858177
    23   6 C       52   1 H                                       1.0858136
    23   6 C       53   1 H                                       1.0875386
    23   6 C       54   1 H                                       1.0870941
    24   6 C       55   1 H                                       1.0865491
    24   6 C       56   1 H                                       1.0851085
    24   6 C       57   1 H                                       1.0871213
    26   6 C       58   1 H                                       1.0815968
    29   6 C       59   1 H                                       1.0793887 (min)
    30   6 C       60   1 H                                       1.0854116

 * 5 distinct bonds (by element types)

   Z      Z             #   av. dist./Å        max./Å        min./Å
   1 H    6 C          32     1.0859768     1.0918188     1.0793887
   5 B    6 C           2     1.5530573     1.5596745     1.5464400
   6 C    6 C          14     1.4719749     1.5344995     1.3348982
   5 B    8 O           4     1.3692125     1.3714232     1.3657970
   6 C    8 O           4     1.4263881     1.4272004     1.4256216


optimized geometry written to: xtbopt.xyz


           -------------------------------------------------
          | TOTAL ENERGY              -82.283300486538 Eh   |
          | GRADIENT NORM               0.000791117904 Eh/α |
          | HOMO-LUMO GAP               1.813235706142 eV   |
           -------------------------------------------------

------------------------------------------------------------------------
 * finished run on 2022/07/09 at 18:33:03.359     
------------------------------------------------------------------------
 total:
 * wall-time:     0 d,  0 h,  0 min,  1.136 sec
 *  cpu-time:     0 d,  0 h,  0 min,  1.134 sec
 * ratio c/w:     0.999 speedup
 SCF:
 * wall-time:     0 d,  0 h,  0 min,  0.072 sec
 *  cpu-time:     0 d,  0 h,  0 min,  0.071 sec
 * ratio c/w:     0.995 speedup
 ANC optimizer:
 * wall-time:     0 d,  0 h,  0 min,  1.051 sec
 *  cpu-time:     0 d,  0 h,  0 min,  1.050 sec
 * ratio c/w:     0.999 speedup

