      -----------------------------------------------------------      
     |                   =====================                   |     
     |                           x T B                           |     
     |                   =====================                   |     
     |                         S. Grimme                         |     
     |          Mulliken Center for Theoretical Chemistry        |     
     |                    University of Bonn                     |     
      -----------------------------------------------------------      

   * xtb version 6.5.0 (homebrew) compiled by 'nhattrup@GPGGRP-SHANNON.CHEME.CMU.EDU' on 

   xtb is free software: you can redistribute it and/or modify it under
   the terms of the GNU Lesser General Public License as published by
   the Free Software Foundation, either version 3 of the License, or
   (at your option) any later version.
   
   xtb is distributed in the hope that it will be useful,
   but WITHOUT ANY WARRANTY; without even the implied warranty of
   MERCHANTABILITY or FITNESS FOR A PARTICULAR PURPOSE.  See the
   GNU Lesser General Public License for more details.
   
   Cite this work as:
   * C. Bannwarth, E. Caldeweyher, S. Ehlert, A. Hansen, P. Pracht,
     J. Seibert, S. Spicher, S. Grimme, WIREs Comput. Mol. Sci., 2020, 11,
     e01493. DOI: 10.1002/wcms.1493
   
   for GFN2-xTB:
   * C. Bannwarth, S. Ehlert and S. Grimme., J. Chem. Theory Comput., 2019,
     15, 1652-1671. DOI: 10.1021/acs.jctc.8b01176
   for GFN1-xTB:
   * S. Grimme, C. Bannwarth, P. Shushkov, J. Chem. Theory Comput., 2017,
     13, 1989-2009. DOI: 10.1021/acs.jctc.7b00118
   for GFN0-xTB:
   * P. Pracht, E. Caldeweyher, S. Ehlert, S. Grimme, ChemRxiv, 2019, preprint.
     DOI: 10.26434/chemrxiv.8326202.v1
   for GFN-FF:
   * S. Spicher and S. Grimme, Angew. Chem. Int. Ed., 2020, 59, 15665-15673.
     DOI: 10.1002/anie.202004239
   
   for ALPB and GBSA implicit solvation:
   * S. Ehlert, M. Stahn, S. Spicher, S. Grimme, J. Chem. Theory Comput.,
     2021, 17, 4250-4261. DOI: 10.1021/acs.jctc.1c00471
   
   for DFT-D4:
   * E. Caldeweyher, C. Bannwarth and S. Grimme, J. Chem. Phys., 2017,
     147, 034112. DOI: 10.1063/1.4993215
   * E. Caldeweyher, S. Ehlert, A. Hansen, H. Neugebauer, S. Spicher,
     C. Bannwarth and S. Grimme, J. Chem. Phys., 2019, 150, 154122.
     DOI: 10.1063/1.5090222
   * E. Caldeweyher, J.-M. Mewes, S. Ehlert and S. Grimme, Phys. Chem. Chem. Phys.
     2020, 22, 8499-8512. DOI: 10.1039/D0CP00502A
   
   for sTDA-xTB:
   * S. Grimme and C. Bannwarth, J. Chem. Phys., 2016, 145, 054103.
     DOI: 10.1063/1.4959605
   
   in the mass-spec context:
   * V. Asgeirsson, C. Bauer and S. Grimme, Chem. Sci., 2017, 8, 4879.
     DOI: 10.1039/c7sc00601b
   * J. Koopman and S. Grimme, ACS Omega 2019, 4, 12, 15120-15133.
     DOI: 10.1021/acsomega.9b02011
   
   for metadynamics refer to:
   * S. Grimme, J. Chem. Theory Comput., 2019, 155, 2847-2862
     DOI: 10.1021/acs.jctc.9b00143
   
   for SPH calculations refer to:
   * S. Spicher and S. Grimme, J. Chem. Theory Comput., 2021, 17, 1701-1714
     DOI: 10.1021/acs.jctc.0c01306
   
   with help from (in alphabetical order)
   P. Atkinson, C. Bannwarth, F. Bohle, G. Brandenburg, E. Caldeweyher
   M. Checinski, S. Dohm, S. Ehlert, S. Ehrlich, I. Gerasimov, C. Hölzer
   A. Katbashev, J. Koopman, C. Lavigne, S. Lehtola, F. März, M. Müller,
   F. Musil, H. Neugebauer, J. Pisarek, C. Plett, P. Pracht, F. Pultar,
   J. Seibert, P. Shushkov, S. Spicher, M. Stahn, M. Steiner, T. Strunk,
   J. Stückrath, T. Rose, and J. Unsleber
   
 * started run on 2022/07/09 at 18:33:28.628     

           -------------------------------------------------
          |                Calculation Setup                |
           -------------------------------------------------

          program call               : /opt/homebrew/bin/xtb bvl_bpin2_scan_8-3_xtb.xyz --chrg 0 --uhf 0 --opt --input xcontrol_bvl_bpin2_scan_8-3_xtb
          coordinate file            : bvl_bpin2_scan_8-3_xtb.xyz
          omp threads                :                     1

   ID    Z sym.   atoms
    1    6 C      1, 2, 4-7, 10-12, 14, 16, 19-24, 26, 27, 29-31
    2    8 O      3, 8, 18, 25
    3    5 B      9, 17
    4    1 H      13, 15, 28, 32-60
constraining bond 12 31 to    2.3889000 Å, actual value:    2.2751336 Å
constraining bond 10 29 to    2.1667000 Å, actual value:    2.2745748 Å

           -------------------------------------------------
          |                 G F N 2 - x T B                 |
           -------------------------------------------------

        Reference                      10.1021/acs.jctc.8b01176
      * Hamiltonian:
        H0-scaling (s, p, d)           1.850000    2.230000    2.230000
        zeta-weighting                 0.500000
      * Dispersion:
        s8                             2.700000
        a1                             0.520000
        a2                             5.000000
        s9                             5.000000
      * Repulsion:
        kExp                           1.500000    1.000000
        rExp                           1.000000
      * Coulomb:
        alpha                          2.000000
        third order                    shell-resolved
        anisotropic                    true
        a3                             3.000000
        a5                             4.000000
        cn-shift                       1.200000
        cn-exp                         4.000000
        max-rad                        5.000000


          ...................................................
          :                      SETUP                      :
          :.................................................:
          :  # basis functions                 144          :
          :  # atomic orbitals                 144          :
          :  # shells                           88          :
          :  # electrons                       150          :
          :  max. iterations                   250          :
          :  Hamiltonian                  GFN2-xTB          :
          :  restarted?                      false          :
          :  GBSA solvation                  false          :
          :  PC potential                    false          :
          :  electronic temp.          300.0000000     K    :
          :  accuracy                    1.0000000          :
          :  -> integral cutoff          0.2500000E+02      :
          :  -> integral neglect         0.1000000E-07      :
          :  -> SCF convergence          0.1000000E-05 Eh   :
          :  -> wf. convergence          0.1000000E-03 e    :
          :  Broyden damping             0.4000000          :
          ...................................................

 iter      E             dE          RMSdq      gap      omega  full diag
   1    -82.9219142 -0.829219E+02  0.475E+00    1.59       0.0  T
   2    -83.2750481 -0.353134E+00  0.297E+00    1.55       1.0  T
   3    -83.2014919  0.735562E-01  0.202E+00    1.98       1.0  T
   4    -83.1872350  0.142569E-01  0.159E+00    1.95       1.0  T
   5    -83.3494822 -0.162247E+00  0.310E-01    1.58       1.0  T
   6    -83.3549060 -0.542387E-02  0.121E-01    1.57       1.0  T
   7    -83.3548949  0.111270E-04  0.484E-02    1.57       1.0  T
   8    -83.3549503 -0.554320E-04  0.205E-02    1.57       1.0  T
   9    -83.3549797 -0.293743E-04  0.827E-03    1.57       1.6  T
  10    -83.3549829 -0.323133E-05  0.415E-03    1.57       3.1  T
  11    -83.3549833 -0.341615E-06  0.181E-03    1.57       7.1  T
  12    -83.3549834 -0.991346E-07  0.442E-04    1.57      29.2  T
  13    -83.3549834 -0.397284E-08  0.259E-04    1.57      49.8  T

   *** convergence criteria satisfied after 13 iterations ***

         #    Occupation            Energy/Eh            Energy/eV
      -------------------------------------------------------------
         1        2.0000           -0.6865838             -18.6829
       ...           ...                  ...                  ...
        69        2.0000           -0.4003562             -10.8942
        70        2.0000           -0.3966944             -10.7946
        71        2.0000           -0.3962482             -10.7825
        72        2.0000           -0.3958161             -10.7707
        73        2.0000           -0.3912265             -10.6458
        74        2.0000           -0.3640788              -9.9071
        75        2.0000           -0.3297316              -8.9725 (HOMO)
        76                         -0.2720080              -7.4017 (LUMO)
        77                         -0.2185408              -5.9468
        78                         -0.1853192              -5.0428
        79                         -0.1451058              -3.9485
        80                         -0.0955805              -2.6009
       ...                                ...                  ...
       144                          0.6797000              18.4956
      -------------------------------------------------------------
                  HL-Gap            0.0577236 Eh            1.5707 eV
             Fermi-level           -0.3009752 Eh           -8.1900 eV

 SCC (total)                   0 d,  0 h,  0 min,  0.072 sec
 SCC setup                      ...        0 min,  0.000 sec (  0.357%)
 Dispersion                     ...        0 min,  0.000 sec (  0.627%)
 classical contributions        ...        0 min,  0.000 sec (  0.254%)
 integral evaluation            ...        0 min,  0.006 sec (  8.690%)
 iterations                     ...        0 min,  0.036 sec ( 50.284%)
 molecular gradient             ...        0 min,  0.028 sec ( 39.262%)
 printout                       ...        0 min,  0.000 sec (  0.519%)

         :::::::::::::::::::::::::::::::::::::::::::::::::::::
         ::                     SUMMARY                     ::
         :::::::::::::::::::::::::::::::::::::::::::::::::::::
         :: total energy             -82.105744478631 Eh    ::
         :: gradient norm              1.679326799657 Eh/a0 ::
         :: HOMO-LUMO gap              1.570739854884 eV    ::
         ::.................................................::
         :: SCC energy               -83.354983381338 Eh    ::
         :: -> isotropic ES            0.147572636996 Eh    ::
         :: -> anisotropic ES          0.012348644369 Eh    ::
         :: -> anisotropic XC          0.027600628460 Eh    ::
         :: -> dispersion             -0.062585423423 Eh    ::
         :: repulsion energy           1.072959197330 Eh    ::
         :: add. restraining           0.175551861362 Eh    ::
         :: total charge               0.000000000000 e     ::
         :::::::::::::::::::::::::::::::::::::::::::::::::::::

      ----------------------------------------------------------- 
     |                   =====================                   |
     |                        A N C O P T                        |
     |                   =====================                   |
     |               Approximate Normal Coordinate               |
     |                Rational Function Optimizer                |
      ----------------------------------------------------------- 

          ...................................................
          :                      SETUP                      :
          :.................................................:
          :   optimization level            normal          :
          :   max. optcycles                   200          :
          :   ANC micro-cycles                  20          :
          :   degrees of freedom               174          :
          :.................................................:
          :   RF solver                   davidson          :
          :   write xtbopt.log                true          :
          :   linear?                        false          :
          :   energy convergence         0.5000000E-05 Eh   :
          :   grad. convergence          0.1000000E-02 Eh/α :
          :   maximium RF displ.         1.0000000          :
          :   Hlow (freq-cutoff)         0.1000000E-01      :
          :   Hmax (freq-cutoff)         5.0000000          :
          :   S6 in model hess.         20.0000000          :
          ...................................................

generating ANC from model Hessian ...
Using Lindh-Hessian (1995)
 Shifting diagonal of input Hessian by   0.20302877318843515     
 Lowest  eigenvalues of input Hessian
    0.010000    0.147700    0.000000    0.000000    0.000000    0.000000
    0.000000    0.000000    0.203137    0.203168    0.203314    0.204639
    0.204917    0.205863    0.206318    0.206390    0.207557    0.208149
 Highest eigenvalues
    1.914699    2.087011    2.089375    2.173212    8.782370    8.844722


........................................................................
.............................. CYCLE    1 ..............................
........................................................................
   1    -83.3549834 -0.833550E+02  0.105E-04    1.57       0.0  T
   2    -83.3549834  0.271172E-09  0.102E-04    1.57     126.1  T
   3    -83.3549834 -0.395545E-09  0.693E-05    1.57     186.2  T
     SCC iter.                  ...        0 min,  0.009 sec
     gradient                   ...        0 min,  0.027 sec
 * total energy  :   -82.1057445 Eh     change       -0.9554384E-09 Eh
   gradient norm :     1.6793276 Eh/α   predicted     0.0000000E+00 (-100.00%)
   displ. norm   :     0.3114172 α      lambda       -0.5161316E+00
   maximum displ.:     0.2918229 α      in ANC's #174, #173, #127, ...

........................................................................
.............................. CYCLE    2 ..............................
........................................................................
   1    -83.3475605 -0.833476E+02  0.295E-01    1.77       0.0  T
   2    -83.3468888  0.671784E-03  0.304E-01    1.75       1.0  T
   3    -83.3505230 -0.363427E-02  0.148E-01    1.76       1.0  T
   4    -83.3499158  0.607254E-03  0.101E-01    1.77       1.0  T
   5    -83.3505082 -0.592452E-03  0.323E-02    1.76       1.0  T
   6    -83.3505704 -0.621504E-04  0.717E-03    1.76       1.8  T
   7    -83.3505723 -0.187368E-05  0.328E-03    1.76       3.9  T
   8    -83.3505725 -0.210293E-06  0.986E-04    1.76      13.1  T
   9    -83.3505725 -0.146388E-07  0.385E-04    1.76      33.6  T
     SCC iter.                  ...        0 min,  0.025 sec
     gradient                   ...        0 min,  0.028 sec
 * total energy  :   -82.2365889 Eh     change       -0.1308445E+00 Eh
   gradient norm :     0.8396829 Eh/α   predicted    -0.2832402E+00 ( 116.47%)
   displ. norm   :     0.1060372 α      lambda       -0.8512028E-01
   maximum displ.:     0.0964452 α      in ANC's #174, #173, #37, ...

........................................................................
.............................. CYCLE    3 ..............................
........................................................................
   1    -83.3525702 -0.833526E+02  0.107E-01    1.67       0.0  T
   2    -83.3524751  0.950893E-04  0.107E-01    1.68       1.0  T
   3    -83.3529484 -0.473280E-03  0.524E-02    1.68       1.0  T
   4    -83.3528276  0.120794E-03  0.459E-02    1.68       1.0  T
   5    -83.3529540 -0.126415E-03  0.128E-02    1.68       1.0  T
   6    -83.3529638 -0.976595E-05  0.273E-03    1.68       4.7  T
   7    -83.3529641 -0.304217E-06  0.118E-03    1.68      11.0  T
   8    -83.3529641 -0.222295E-07  0.352E-04    1.68      36.7  T
   9    -83.3529641 -0.169642E-08  0.132E-04    1.68      97.4  T
     SCC iter.                  ...        0 min,  0.025 sec
     gradient                   ...        0 min,  0.027 sec
 * total energy  :   -82.2800860 Eh     change       -0.4349709E-01 Eh
   gradient norm :     0.0261745 Eh/α   predicted    -0.4304697E-01 (  -1.03%)
   displ. norm   :     0.0432445 α      lambda       -0.7903840E-03
   maximum displ.:     0.0210391 α      in ANC's #37, #127, #33, ...

........................................................................
.............................. CYCLE    4 ..............................
........................................................................
   1    -83.3527566 -0.833528E+02  0.282E-02    1.68       0.0  T
   2    -83.3527568 -0.258546E-06  0.174E-02    1.68       1.0  T
   3    -83.3527420  0.148457E-04  0.154E-02    1.68       1.0  T
   4    -83.3527582 -0.162041E-04  0.462E-03    1.68       2.8  T
   5    -83.3527593 -0.110306E-05  0.202E-03    1.68       6.4  T
   6    -83.3527596 -0.265614E-06  0.440E-04    1.68      29.4  T
   7    -83.3527596 -0.404202E-08  0.242E-04    1.68      53.3  T
     SCC iter.                  ...        0 min,  0.019 sec
     gradient                   ...        0 min,  0.027 sec
 * total energy  :   -82.2807573 Eh     change       -0.6712565E-03 Eh
   gradient norm :     0.0148132 Eh/α   predicted    -0.4071269E-03 ( -39.35%)
   displ. norm   :     0.1286214 α      lambda       -0.1406065E-02
   maximum displ.:     0.0660268 α      in ANC's #37, #1, #33, ...

........................................................................
.............................. CYCLE    5 ..............................
........................................................................
   1    -83.3521133 -0.833521E+02  0.790E-02    1.69       0.0  T
   2    -83.3521092  0.406766E-05  0.478E-02    1.69       1.0  T
   3    -83.3519268  0.182375E-03  0.530E-02    1.69       1.0  T
   4    -83.3521163 -0.189502E-03  0.110E-02    1.69       1.2  T
   5    -83.3521242 -0.788269E-05  0.290E-03    1.69       4.4  T
   6    -83.3521247 -0.512723E-06  0.102E-03    1.69      12.7  T
   7    -83.3521247 -0.185362E-07  0.530E-04    1.69      24.4  T
   8    -83.3521247 -0.890481E-08  0.136E-04    1.69      94.7  T
     SCC iter.                  ...        0 min,  0.022 sec
     gradient                   ...        0 min,  0.027 sec
 * total energy  :   -82.2815001 Eh     change       -0.7427748E-03 Eh
   gradient norm :     0.0144223 Eh/α   predicted    -0.7138227E-03 (  -3.90%)
   displ. norm   :     0.3307419 α      lambda       -0.1583364E-02
   maximum displ.:     0.2897478 α      in ANC's #1, #37, #33, ...

........................................................................
.............................. CYCLE    6 ..............................
........................................................................
   1    -83.3466286 -0.833466E+02  0.194E-01    1.66       0.0  T
   2    -83.3466235  0.505642E-05  0.117E-01    1.66       1.0  T
   3    -83.3459879  0.635625E-03  0.969E-02    1.66       1.0  T
   4    -83.3466432 -0.655262E-03  0.731E-03    1.66       1.8  T
   5    -83.3466455 -0.236833E-05  0.328E-03    1.66       3.9  T
   6    -83.3466456 -0.884068E-07  0.230E-03    1.66       5.6  T
   7    -83.3466458 -0.237177E-06  0.491E-04    1.66      26.3  T
   8    -83.3466459 -0.838602E-08  0.185E-04    1.66      70.0  T
     SCC iter.                  ...        0 min,  0.022 sec
     gradient                   ...        0 min,  0.028 sec
 * total energy  :   -82.2786191 Eh     change        0.2880981E-02 Eh
   gradient norm :     0.0653250 Eh/α   predicted    -0.8764095E-03 (-130.42%)
   displ. norm   :     0.2365610 α      lambda       -0.6480196E-02
   maximum displ.:     0.2251156 α      in ANC's #1, #37, #36, ...

........................................................................
.............................. CYCLE    7 ..............................
........................................................................
   1    -83.3529720 -0.833530E+02  0.143E-01    1.69       0.0  T
   2    -83.3529578  0.141551E-04  0.871E-02    1.68       1.0  T
   3    -83.3523147  0.643123E-03  0.995E-02    1.69       1.0  T
   4    -83.3529850 -0.670346E-03  0.586E-03    1.69       2.2  T
   5    -83.3529867 -0.166278E-05  0.238E-03    1.68       5.4  T
   6    -83.3529867 -0.256619E-07  0.147E-03    1.68       8.8  T
   7    -83.3529868 -0.701205E-07  0.397E-04    1.68      32.5  T
   8    -83.3529868 -0.433991E-08  0.193E-04    1.68      66.9  T
     SCC iter.                  ...        0 min,  0.022 sec
     gradient                   ...        0 min,  0.028 sec
 * total energy  :   -82.2819012 Eh     change       -0.3282085E-02 Eh
   gradient norm :     0.0226270 Eh/α   predicted    -0.3438152E-02 (   4.76%)
   displ. norm   :     0.0358080 α      lambda       -0.2982953E-03
   maximum displ.:     0.0233832 α      in ANC's #1, #37, #33, ...

........................................................................
.............................. CYCLE    8 ..............................
........................................................................
   1    -83.3535919 -0.833536E+02  0.207E-02    1.68       0.0  T
   2    -83.3535919 -0.144416E-07  0.126E-02    1.68       1.0  T
   3    -83.3535835  0.843856E-05  0.116E-02    1.68       1.1  T
   4    -83.3535921 -0.859645E-05  0.268E-03    1.68       4.8  T
   5    -83.3535925 -0.443713E-06  0.913E-04    1.68      14.1  T
   6    -83.3535926 -0.569703E-07  0.252E-04    1.68      51.2  T
     SCC iter.                  ...        0 min,  0.016 sec
     gradient                   ...        0 min,  0.027 sec
 * total energy  :   -82.2821031 Eh     change       -0.2018795E-03 Eh
   gradient norm :     0.0150194 Eh/α   predicted    -0.1487117E-03 ( -26.34%)
   displ. norm   :     0.0856159 α      lambda       -0.3905338E-03
   maximum displ.:     0.0497890 α      in ANC's #37, #33, #36, ...

........................................................................
.............................. CYCLE    9 ..............................
........................................................................
   1    -83.3546397 -0.833546E+02  0.431E-02    1.67       0.0  T
   2    -83.3546399 -0.217329E-06  0.256E-02    1.67       1.0  T
   3    -83.3546208  0.190649E-04  0.174E-02    1.67       1.0  T
   4    -83.3546403 -0.194753E-04  0.234E-03    1.67       5.5  T
   5    -83.3546406 -0.315658E-06  0.103E-03    1.67      12.6  T
   6    -83.3546407 -0.655583E-07  0.443E-04    1.67      29.2  T
   7    -83.3546407 -0.392180E-08  0.160E-04    1.67      80.7  T
     SCC iter.                  ...        0 min,  0.019 sec
     gradient                   ...        0 min,  0.029 sec
 * total energy  :   -82.2823842 Eh     change       -0.2811882E-03 Eh
   gradient norm :     0.0104829 Eh/α   predicted    -0.1942899E-03 ( -30.90%)
   displ. norm   :     0.1139110 α      lambda       -0.2972451E-03
   maximum displ.:     0.0660469 α      in ANC's #37, #33, #36, ...

........................................................................
.............................. CYCLE   10 ..............................
........................................................................
   1    -83.3554702 -0.833555E+02  0.558E-02    1.66       0.0  T
   2    -83.3554703 -0.814607E-07  0.328E-02    1.66       1.0  T
   3    -83.3554490  0.213145E-04  0.183E-02    1.66       1.0  T
   4    -83.3554708 -0.218321E-04  0.221E-03    1.66       5.8  T
   5    -83.3554710 -0.260657E-06  0.103E-03    1.66      12.5  T
   6    -83.3554711 -0.455404E-07  0.438E-04    1.66      29.5  T
   7    -83.3554711 -0.299833E-08  0.212E-04    1.66      61.0  T
     SCC iter.                  ...        0 min,  0.019 sec
     gradient                   ...        0 min,  0.028 sec
 * total energy  :   -82.2825655 Eh     change       -0.1812389E-03 Eh
   gradient norm :     0.0057785 Eh/α   predicted    -0.1479291E-03 ( -18.38%)
   displ. norm   :     0.0414415 α      lambda       -0.6616820E-04
   maximum displ.:     0.0195514 α      in ANC's #37, #33, #29, ...

........................................................................
.............................. CYCLE   11 ..............................
........................................................................
   1    -83.3559853 -0.833560E+02  0.192E-02    1.66       0.0  T
   2    -83.3559854 -0.622485E-07  0.114E-02    1.66       1.1  T
   3    -83.3559845  0.940766E-06  0.380E-03    1.66       3.4  T
   4    -83.3559854 -0.950997E-06  0.922E-04    1.66      14.0  T
   5    -83.3559854 -0.351008E-07  0.587E-04    1.66      22.0  T
     SCC iter.                  ...        0 min,  0.014 sec
     gradient                   ...        0 min,  0.028 sec
 * total energy  :   -82.2826155 Eh     change       -0.5003572E-04 Eh
   gradient norm :     0.0038563 Eh/α   predicted    -0.3344899E-04 ( -33.15%)
   displ. norm   :     0.0428676 α      lambda       -0.6864818E-04
   maximum displ.:     0.0149560 α      in ANC's #29, #17, #37, ...

........................................................................
.............................. CYCLE   12 ..............................
........................................................................
   1    -83.3567307 -0.833567E+02  0.181E-02    1.65       0.0  T
   2    -83.3567308 -0.853025E-07  0.108E-02    1.65       1.2  T
   3    -83.3567294  0.142339E-05  0.466E-03    1.65       2.8  T
   4    -83.3567309 -0.151763E-05  0.582E-04    1.65      22.2  T
   5    -83.3567309 -0.449889E-08  0.448E-04    1.65      28.8  T
   6    -83.3567309 -0.106267E-07  0.250E-04    1.65      51.6  T
     SCC iter.                  ...        0 min,  0.017 sec
     gradient                   ...        0 min,  0.029 sec
 * total energy  :   -82.2826638 Eh     change       -0.4827695E-04 Eh
   gradient norm :     0.0028128 Eh/α   predicted    -0.3471130E-04 ( -28.10%)
   displ. norm   :     0.0350622 α      lambda       -0.4680889E-04
   maximum displ.:     0.0134412 α      in ANC's #29, #17, #30, ...

........................................................................
.............................. CYCLE   13 ..............................
........................................................................
   1    -83.3573112 -0.833573E+02  0.129E-02    1.65       0.0  T
   2    -83.3573113 -0.567118E-07  0.777E-03    1.65       1.7  T
   3    -83.3573104  0.843237E-06  0.361E-03    1.65       3.6  T
   4    -83.3573113 -0.900740E-06  0.468E-04    1.65      27.6  T
   5    -83.3573113 -0.565734E-08  0.306E-04    1.65      42.1  T
     SCC iter.                  ...        0 min,  0.014 sec
     gradient                   ...        0 min,  0.028 sec
 * total energy  :   -82.2826981 Eh     change       -0.3434681E-04 Eh
   gradient norm :     0.0030296 Eh/α   predicted    -0.2355349E-04 ( -31.42%)
   displ. norm   :     0.0385561 α      lambda       -0.4434290E-04
   maximum displ.:     0.0150742 α      in ANC's #29, #17, #43, ...

........................................................................
.............................. CYCLE   14 ..............................
........................................................................
   1    -83.3576677 -0.833577E+02  0.132E-02    1.64       0.0  T
   2    -83.3576678 -0.523930E-07  0.795E-03    1.64       1.6  T
   3    -83.3576668  0.978908E-06  0.368E-03    1.64       3.5  T
   4    -83.3576678 -0.978529E-06  0.108E-03    1.64      11.9  T
   5    -83.3576678 -0.519738E-07  0.542E-04    1.64      23.8  T
   6    -83.3576679 -0.160179E-07  0.185E-04    1.64      69.9  T
     SCC iter.                  ...        0 min,  0.017 sec
     gradient                   ...        0 min,  0.028 sec
 * total energy  :   -82.2827295 Eh     change       -0.3137705E-04 Eh
   gradient norm :     0.0029952 Eh/α   predicted    -0.2236414E-04 ( -28.72%)
   displ. norm   :     0.0318344 α      lambda       -0.3107350E-04
   maximum displ.:     0.0125403 α      in ANC's #29, #17, #43, ...

........................................................................
.............................. CYCLE   15 ..............................
........................................................................
   1    -83.3576009 -0.833576E+02  0.114E-02    1.64       0.0  T
   2    -83.3576008  0.429973E-07  0.687E-03    1.64       1.9  T
   3    -83.3575975  0.328018E-05  0.702E-03    1.64       1.8  T
   4    -83.3576009 -0.338127E-05  0.100E-03    1.64      12.9  T
   5    -83.3576010 -0.500623E-07  0.249E-04    1.64      51.9  T
   6    -83.3576010 -0.185065E-08  0.140E-04    1.64      92.5  T
     SCC iter.                  ...        0 min,  0.016 sec
     gradient                   ...        0 min,  0.028 sec
 * total energy  :   -82.2827516 Eh     change       -0.2209576E-04 Eh
   gradient norm :     0.0022481 Eh/α   predicted    -0.1559624E-04 ( -29.42%)
   displ. norm   :     0.0270264 α      lambda       -0.2341566E-04
   maximum displ.:     0.0111716 α      in ANC's #29, #17, #37, ...

........................................................................
.............................. CYCLE   16 ..............................
........................................................................
   1    -83.3572568 -0.833573E+02  0.108E-02    1.64       0.0  T
   2    -83.3572567  0.125198E-06  0.668E-03    1.64       1.9  T
   3    -83.3572525  0.419206E-05  0.820E-03    1.64       1.6  T
   4    -83.3572569 -0.438802E-05  0.947E-04    1.64      13.6  T
   5    -83.3572569 -0.473538E-07  0.233E-04    1.64      55.5  T
   6    -83.3572569 -0.109044E-08  0.127E-04    1.64     101.6  T
     SCC iter.                  ...        0 min,  0.016 sec
     gradient                   ...        0 min,  0.028 sec
 * total energy  :   -82.2827684 Eh     change       -0.1680688E-04 Eh
   gradient norm :     0.0016990 Eh/α   predicted    -0.1173859E-04 ( -30.16%)
   displ. norm   :     0.0389048 α      lambda       -0.1957627E-04
   maximum displ.:     0.0175006 α      in ANC's #29, #17, #6, ...

........................................................................
.............................. CYCLE   17 ..............................
........................................................................
   1    -83.3566141 -0.833566E+02  0.169E-02    1.65       0.0  T
   2    -83.3566138  0.266188E-06  0.105E-02    1.65       1.2  T
   3    -83.3566044  0.944685E-05  0.123E-02    1.65       1.1  T
   4    -83.3566142 -0.982639E-05  0.127E-03    1.65      10.1  T
   5    -83.3566143 -0.908677E-07  0.348E-04    1.65      37.1  T
   6    -83.3566143 -0.266743E-08  0.195E-04    1.65      66.3  T
     SCC iter.                  ...        0 min,  0.016 sec
     gradient                   ...        0 min,  0.028 sec
 * total energy  :   -82.2827859 Eh     change       -0.1753193E-04 Eh
   gradient norm :     0.0024074 Eh/α   predicted    -0.9870703E-05 ( -43.70%)
   displ. norm   :     0.0132272 α      lambda       -0.1169518E-04
   maximum displ.:     0.0059957 α      in ANC's #29, #6, #17, ...

........................................................................
.............................. CYCLE   18 ..............................
........................................................................
   1    -83.3565381 -0.833565E+02  0.621E-03    1.65       0.0  T
   2    -83.3565381 -0.528587E-08  0.373E-03    1.65       3.5  T
   3    -83.3565381  0.584850E-07  0.909E-04    1.65      14.2  T
   4    -83.3565382 -0.622196E-07  0.158E-04    1.65      81.8  T
     SCC iter.                  ...        0 min,  0.011 sec
     gradient                   ...        0 min,  0.028 sec
 * total energy  :   -82.2827959 Eh     change       -0.9976515E-05 Eh
   gradient norm :     0.0019572 Eh/α   predicted    -0.5862753E-05 ( -41.23%)
   displ. norm   :     0.0589968 α      lambda       -0.2556374E-04
   maximum displ.:     0.0281529 α      in ANC's #29, #6, #17, ...

........................................................................
.............................. CYCLE   19 ..............................
........................................................................
   1    -83.3564928 -0.833565E+02  0.248E-02    1.65       0.0  T
   2    -83.3564928 -0.252136E-07  0.149E-02    1.65       1.0  T
   3    -83.3564877  0.512330E-05  0.845E-03    1.65       1.5  T
   4    -83.3564929 -0.517019E-05  0.167E-03    1.65       7.7  T
   5    -83.3564930 -0.147272E-06  0.523E-04    1.65      24.7  T
   6    -83.3564930 -0.106431E-07  0.258E-04    1.65      50.0  T
     SCC iter.                  ...        0 min,  0.016 sec
     gradient                   ...        0 min,  0.028 sec
 * total energy  :   -82.2828107 Eh     change       -0.1475117E-04 Eh
   gradient norm :     0.0015302 Eh/α   predicted    -0.1279583E-04 ( -13.26%)
   displ. norm   :     0.0075560 α      lambda       -0.5133414E-05
   maximum displ.:     0.0031645 α      in ANC's #63, #1, #59, ...

........................................................................
.............................. CYCLE   20 ..............................
........................................................................
   1    -83.3567371 -0.833567E+02  0.486E-03    1.65       0.0  T
   2    -83.3567371  0.143488E-07  0.303E-03    1.65       4.3  T
   3    -83.3567365  0.613655E-06  0.319E-03    1.65       4.0  T
   4    -83.3567371 -0.629134E-06  0.558E-04    1.65      23.1  T
   5    -83.3567371 -0.213387E-07  0.119E-04    1.65     108.6  T
     SCC iter.                  ...        0 min,  0.014 sec
     gradient                   ...        0 min,  0.028 sec
 * total energy  :   -82.2828167 Eh     change       -0.6001314E-05 Eh
   gradient norm :     0.0008947 Eh/α   predicted    -0.2581431E-05 ( -56.99%)
   displ. norm   :     0.0168283 α      lambda       -0.7196531E-05
   maximum displ.:     0.0057989 α      in ANC's #28, #6, #1, ...
 * RMSD in coord.:     0.0895267 α      energy gain  -0.1770722E+00 Eh

generating ANC from model Hessian ...
Using Lindh-Hessian (1995)
 Shifting diagonal of input Hessian by    1.0115495364814644E-002
 Lowest  eigenvalues of input Hessian
    0.010000    0.000000    0.000000    0.000000    0.000000    0.000000
    0.000000    0.010216    0.010248    0.010259    0.010886    0.011857
    0.012449    0.013250    0.013413    0.013477    0.014713    0.015266
 Highest eigenvalues
    1.721273    1.894252    1.905280    1.920443    8.607094    8.675062


........................................................................
.............................. CYCLE   21 ..............................
........................................................................
   1    -83.3570879 -0.833571E+02  0.654E-03    1.65       0.0  T
   2    -83.3570879  0.319782E-07  0.408E-03    1.65       3.2  T
   3    -83.3570866  0.131146E-05  0.471E-03    1.65       2.7  T
   4    -83.3570879 -0.136541E-05  0.684E-04    1.65      18.9  T
   5    -83.3570880 -0.285761E-07  0.220E-04    1.65      58.7  T
   6    -83.3570880 -0.278195E-08  0.798E-05    1.65     161.8  T
     SCC iter.                  ...        0 min,  0.017 sec
     gradient                   ...        0 min,  0.028 sec
 * total energy  :   -82.2828242 Eh     change       -0.7514985E-05 Eh
   gradient norm :     0.0007772 Eh/α   predicted     0.0000000E+00 (-100.00%)
   displ. norm   :     0.0457654 α      lambda       -0.1405952E-04
   maximum displ.:     0.0283302 α      in ANC's #6, #8, #28, ...

........................................................................
.............................. CYCLE   22 ..............................
........................................................................
   1    -83.3569650 -0.833570E+02  0.126E-02    1.65       0.0  T
   2    -83.3569648  0.157294E-06  0.767E-03    1.65       1.7  T
   3    -83.3569595  0.537130E-05  0.935E-03    1.65       1.4  T
   4    -83.3569651 -0.561537E-05  0.521E-04    1.65      24.8  T
   5    -83.3569651 -0.142177E-07  0.194E-04    1.65      66.4  T
   6    -83.3569651 -0.236753E-10  0.137E-04    1.65      94.1  T
     SCC iter.                  ...        0 min,  0.016 sec
     gradient                   ...        0 min,  0.028 sec
 * total energy  :   -82.2828403 Eh     change       -0.1614966E-04 Eh
   gradient norm :     0.0004877 Eh/α   predicted    -0.7045644E-05 ( -56.37%)
   displ. norm   :     0.0949616 α      lambda       -0.1820964E-04
   maximum displ.:     0.0596291 α      in ANC's #6, #8, #3, ...

........................................................................
.............................. CYCLE   23 ..............................
........................................................................
   1    -83.3569131 -0.833569E+02  0.197E-02    1.66       0.0  T
   2    -83.3569127  0.405617E-06  0.120E-02    1.66       1.1  T
   3    -83.3568996  0.130775E-04  0.147E-02    1.65       1.0  T
   4    -83.3569133 -0.136755E-04  0.117E-03    1.66      11.0  T
   5    -83.3569133 -0.821674E-07  0.306E-04    1.66      42.2  T
   6    -83.3569133  0.920579E-10  0.203E-04    1.66      63.5  T
     SCC iter.                  ...        0 min,  0.016 sec
     gradient                   ...        0 min,  0.028 sec
 * total energy  :   -82.2828583 Eh     change       -0.1794313E-04 Eh
   gradient norm :     0.0011239 Eh/α   predicted    -0.9147294E-05 ( -49.02%)
   displ. norm   :     0.0692741 α      lambda       -0.8072057E-05
   maximum displ.:     0.0424743 α      in ANC's #6, #3, #8, ...

........................................................................
.............................. CYCLE   24 ..............................
........................................................................
   1    -83.3569624 -0.833570E+02  0.130E-02    1.66       0.0  T
   2    -83.3569624  0.700676E-08  0.776E-03    1.66       1.7  T
   3    -83.3569609  0.143178E-05  0.485E-03    1.66       2.7  T
   4    -83.3569624 -0.145241E-05  0.775E-04    1.66      16.7  T
   5    -83.3569624 -0.350061E-07  0.254E-04    1.66      50.9  T
   6    -83.3569624 -0.101775E-08  0.153E-04    1.66      84.4  T
     SCC iter.                  ...        0 min,  0.016 sec
     gradient                   ...        0 min,  0.028 sec
 * total energy  :   -82.2828667 Eh     change       -0.8457530E-05 Eh
   gradient norm :     0.0013739 Eh/α   predicted    -0.4047823E-05 ( -52.14%)
   displ. norm   :     0.0681270 α      lambda       -0.6092193E-05
   maximum displ.:     0.0396077 α      in ANC's #6, #3, #2, ...

........................................................................
.............................. CYCLE   25 ..............................
........................................................................
   1    -83.3569484 -0.833569E+02  0.113E-02    1.66       0.0  T
   2    -83.3569485 -0.260488E-07  0.680E-03    1.66       1.9  T
   3    -83.3569483  0.155313E-06  0.166E-03    1.66       7.8  T
   4    -83.3569485 -0.162565E-06  0.463E-04    1.66      27.9  T
   5    -83.3569485 -0.470649E-08  0.352E-04    1.66      36.7  T
     SCC iter.                  ...        0 min,  0.014 sec
     gradient                   ...        0 min,  0.028 sec
 * total energy  :   -82.2828727 Eh     change       -0.5917457E-05 Eh
   gradient norm :     0.0022385 Eh/α   predicted    -0.3053934E-05 ( -48.39%)
   displ. norm   :     0.0474564 α      lambda        0.1413098E-05
   maximum displ.:     0.0275432 α      in ANC's #6, #3, #2, ...

........................................................................
.............................. CYCLE   26 ..............................
........................................................................
   1    -83.3569220 -0.833569E+02  0.786E-03    1.66       0.0  T
   2    -83.3569220 -0.120415E-07  0.472E-03    1.66       2.7  T
   3    -83.3569219  0.796392E-07  0.113E-03    1.66      11.4  T
   4    -83.3569220 -0.823449E-07  0.346E-04    1.66      37.3  T
   5    -83.3569220 -0.377111E-08  0.233E-04    1.66      55.4  T
     SCC iter.                  ...        0 min,  0.014 sec
     gradient                   ...        0 min,  0.028 sec
 * total energy  :   -82.2828730 Eh     change       -0.3492864E-06 Eh
   gradient norm :     0.0046945 Eh/α   predicted     0.7046108E-06 (-301.73%)
   displ. norm   :     0.0157718 α      lambda       -0.4947615E-05
   maximum displ.:     0.0083879 α      in ANC's #3, #2, #8, ...

........................................................................
.............................. CYCLE   27 ..............................
........................................................................
   1    -83.3569836 -0.833570E+02  0.303E-03    1.66       0.0  T
   2    -83.3569835  0.475902E-07  0.195E-03    1.66       6.6  T
   3    -83.3569832  0.346767E-06  0.270E-03    1.66       4.8  T
   4    -83.3569836 -0.413576E-06  0.237E-04    1.66      54.5  T
   5    -83.3569836 -0.315967E-08  0.760E-05    1.66     169.8  T
     SCC iter.                  ...        0 min,  0.014 sec
     gradient                   ...        0 min,  0.028 sec
 * total energy  :   -82.2828764 Eh     change       -0.3407278E-05 Eh
   gradient norm :     0.0003491 Eh/α   predicted    -0.2474661E-05 ( -27.37%)
   displ. norm   :     0.0413139 α      lambda       -0.4343600E-05
   maximum displ.:     0.0208801 α      in ANC's #8, #3, #2, ...

   *** GEOMETRY OPTIMIZATION CONVERGED AFTER 27 ITERATIONS ***

------------------------------------------------------------------------
 total energy gain   :        -0.1771319 Eh     -111.1520 kcal/mol
 total RMSD          :         0.1069249 a0        0.0566 Å
 total power (kW/mol):       -17.2244386 (step) -313.9280 (real)
------------------------------------------------------------------------

 ANCopt (total)                0 d,  0 h,  0 min,  1.481 sec
 optimizer setup                ...        0 min,  0.000 sec (  0.007%)
 model hessian                  ...        0 min,  0.064 sec (  4.299%)
 ANC generation                 ...        0 min,  0.005 sec (  0.371%)
 coordinate transformation      ...        0 min,  0.000 sec (  0.027%)
 single point calculation       ...        0 min,  1.400 sec ( 94.524%)
 optimization log               ...        0 min,  0.007 sec (  0.500%)
 hessian update                 ...        0 min,  0.001 sec (  0.042%)
 rational function              ...        0 min,  0.002 sec (  0.153%)

================
 final structure:
================
60
 xtb: 6.5.0 (homebrew)
C            3.58078224095485      -37.66428744109315       15.88601882552060
C            3.75928980850898      -38.12523394278777       17.33072003962456
O            3.29581403274572      -37.10906378724037       18.21774867681605
C            2.88248699480138      -39.36015796636922       17.57599350263435
C            5.25037005010846      -38.33826661349671       17.77995706838104
C            5.71329872554037      -39.79327311375208       17.80531711027469
C            6.24500593645937      -37.50951214520202       16.95682279654384
O            5.26757112751161      -37.81246913814241       19.10594119648920
B            4.15249522400818      -37.03720641905332       19.28778351105889
C            3.86803627188876      -36.22558491662191       20.57073254579511
C            4.88459225136096      -36.04894534420493       21.52975757398567
C            4.89718729979341      -35.26023854566541       22.63306773712195
H            5.80623064834255      -35.20722726179196       23.21484154181452
C            3.81980929946726      -34.26063895783565       23.01299478881027
H            4.05369941278272      -33.85064803473695       23.99761656993120
C            2.44649294842070      -34.88148745194672       23.09290197095904
B            1.71470088204830      -34.88290539194653       24.47069637863100
O            2.24610788874002      -34.35941495558458       25.61734180279786
C            1.40056944504590      -34.70293442407263       26.71398309476412
C            1.28235273740254      -33.51138984761565       27.66150223804259
C            2.07861852830407      -35.86542324171186       27.45044321533045
C            0.06058621517939      -35.12612160299282       26.00961873958426
C           -0.95143205904698      -33.97725614413154       25.91350902059688
C           -0.62736521515690      -36.34824949535595       26.61381163130807
O            0.47673622412857      -35.42471678112549       24.67747291039191
C            1.88966707643795      -35.46236582349927       22.02988261038230
C            2.49398417660396      -35.56710710442687       20.67626763414962
H            1.80812484491081      -36.07508738340084       19.99803222830647
C            3.01080072740239      -34.31664068161680       20.02441190917079
C            3.66542467303481      -33.26405959715491       20.66253939040974
C            3.97163560731689      -33.15836735257417       21.98426044088166
H            4.53097090005206      -32.29333686020904       22.31088794459661
H            2.51845093680057      -37.56542846283614       15.67657497655147
H            4.00707204546230      -38.39486797110848       15.20384346503861
H            4.04746345346460      -36.69862876449152       15.72033306673216
H            1.84419474983070      -39.08603272686241       17.40282534462737
H            2.97570942124961      -39.68601402087073       18.60904880317521
H            3.14998956917803      -40.17255586054144       16.90717743952180
H            5.62169396584072      -40.23502494122325       16.81673583462882
H            5.13788819492898      -40.37484116139907       18.51818586675494
H            6.75643474041377      -39.82491256601189       18.11002804729168
H            6.32047048016211      -37.88296647303860       15.93996994561348
H            7.22173013708888      -37.57284393319209       17.43109287139734
H            5.94550059302304      -36.46444921283459       16.94477052855601
H            5.77604724063051      -36.63217355043151       21.32537712226771
H            2.25514347579527      -33.31688347847980       28.10636242893146
H            0.57137361041433      -33.73093215602165       28.45345385821453
H            0.97025902838669      -32.61749153499620       27.13131740839211
H            3.06891930713708      -35.54449194396712       27.76549823762969
H            2.19826229375894      -36.71387872386407       26.78132003135263
H            1.50830380680367      -36.16274670619285       28.32534131907914
H           -1.34906018622000      -33.72044265650790       26.89080844515110
H           -1.76916209109778      -34.29211491162749       25.26934858436481
H           -0.48703031498616      -33.10406990291138       25.46232591897781
H           -0.87290925922081      -36.16492610467695       27.65640912942853
H            0.00111561913446      -37.22952498161400       26.53795888064600
H           -1.54545072827416      -36.54170647563581       26.06467054771312
H            0.91360068360433      -35.91356763173726       22.14767373283538
H            2.94831556632748      -34.30605623727759       18.94742133435932
H            3.95475873526327      -32.43782914228833       20.02110018566319

 Bond Distances (Angstroems)
 ---------------------------
C1-C2=1.5269         C1-H33=1.0873        C1-H34=1.0867        C1-H35=1.0852        C2-C1=1.5269         C2-O3=1.4263         
C2-C4=1.5343         C2-C5=1.5718         O3-C2=1.4263         O3-B9=1.3726         C4-C2=1.5343         C4-H36=1.0877        
C4-H37=1.0872        C4-H38=1.0858        C5-C2=1.5718         C5-C6=1.5271         C5-C7=1.5342         C5-O8=1.4265         
C6-C5=1.5271         C6-H39=1.0867        C6-H40=1.0851        C6-H41=1.0872        C7-C5=1.5342         C7-H42=1.0859        
C7-H43=1.0876        C7-H44=1.0872        O8-C5=1.4265         O8-B9=1.3702         B9-O3=1.3726         B9-O8=1.3702         
B9-C10=1.5445        C10-B9=1.5445        C10-C11=1.4087       C10-C27=1.5273       C11-C10=1.4087       C11-C12=1.3563       
C11-H45=1.0847       C12-C11=1.3563       C12-H13=1.0806       C12-C14=1.5180       H13-C12=1.0806       C14-C12=1.5180       
C14-H15=1.0919       C14-C16=1.5093       C14-C31=1.5154       H15-C14=1.0919       C16-C14=1.5093       C16-B17=1.5601       
C16-C26=1.3332       B17-C16=1.5601       B17-O18=1.3679       B17-O25=1.3671       O18-B17=1.3679       O18-C19=1.4267       
C19-O18=1.4267       C19-C20=1.5269       C19-C21=1.5341       C19-C22=1.5719       C20-C19=1.5269       C20-H46=1.0872       
C20-H47=1.0867       C20-H48=1.0852       C21-C19=1.5341       C21-H49=1.0876       C21-H50=1.0872       C21-H51=1.0859       
C22-C19=1.5719       C22-C23=1.5341       C22-C24=1.5271       C22-O25=1.4272       C23-C22=1.5341       C23-H52=1.0859       
C23-H53=1.0875       C23-H54=1.0871       C24-C22=1.5271       C24-H55=1.0867       C24-H56=1.0851       C24-H57=1.0871       
O25-B17=1.3671       O25-C22=1.4272       C26-C16=1.3332       C26-C27=1.4861       C26-H58=1.0817       C27-C10=1.5273       
C27-C26=1.4861       C27-H28=1.0902       C27-C29=1.5019       H28-C27=1.0902       C29-C27=1.5019       C29-C30=1.3942       
C29-H59=1.0789       C30-C29=1.3942       C30-C31=1.3608       C30-H60=1.0853       C31-C14=1.5154       C31-C30=1.3608       
C31-H32=1.0807       H32-C31=1.0807       H33-C1=1.0873        H34-C1=1.0867        H35-C1=1.0852        H36-C4=1.0877        
H37-C4=1.0872        H38-C4=1.0858        H39-C6=1.0867        H40-C6=1.0851        H41-C6=1.0872        H42-C7=1.0859        
H43-C7=1.0876        H44-C7=1.0872        H45-C11=1.0847       H46-C20=1.0872       H47-C20=1.0867       H48-C20=1.0852       
H49-C21=1.0876       H50-C21=1.0872       H51-C21=1.0859       H52-C23=1.0859       H53-C23=1.0875       H54-C23=1.0871       
H55-C24=1.0867       H56-C24=1.0851       H57-C24=1.0871       H58-C26=1.0817       H59-C29=1.0789       H60-C30=1.0853       
 C  H  Rav=1.0860 sigma=0.0026  Rmin=1.0789  Rmax=1.0919    32
 C  B  Rav=1.5523 sigma=0.0078  Rmin=1.5445  Rmax=1.5601     2
 C  C  Rav=1.4904 sigma=0.0707  Rmin=1.3332  Rmax=1.5719    21
 O  B  Rav=1.3695 sigma=0.0022  Rmin=1.3671  Rmax=1.3726     4
 O  C  Rav=1.4267 sigma=0.0003  Rmin=1.4263  Rmax=1.4272     4

 selected bond angles (degree)
 --------------------
H33-C1-C2=108.90               H34-C1-C2=110.19               H34-C1-H33=108.87              H35-C1-C2=111.27               
H35-C1-H33=108.05              H35-C1-H34=109.49              O3-C2-C1=109.59                C4-C2-C1=109.11                
C4-C2-O3=106.76                C5-C2-C1=114.98                C5-C2-O3=103.13                C5-C2-C4=112.79                
B9-O3-C2=108.62                H36-C4-C2=108.49               H37-C4-C2=110.13               H37-C4-H36=107.98              
H38-C4-C2=111.28               H38-C4-H36=109.01              H38-C4-H37=109.87              C6-C5-C2=114.93                
C7-C5-C2=112.86                C7-C5-C6=109.09                O8-C5-C2=103.13                O8-C5-C6=109.40                
O8-C5-C7=106.97                H39-C6-C5=110.28               H40-C6-C5=111.15               H40-C6-H39=109.58              
H41-C6-C5=108.86               H41-C6-H39=108.91              H41-C6-H40=108.00              H42-C7-C5=111.20               
H43-C7-C5=108.47               H43-C7-H42=109.02              H44-C7-C5=110.28               H44-C7-H42=109.84              
H44-C7-H43=107.95              B9-O8-C5=108.79                O8-B9-O3=112.01                C10-B9-O3=124.06               
C10-B9-O8=123.88               C11-C10-B9=119.90              C27-C10-B9=116.72              C27-C10-C11=123.24             

 selected dihedral angles (degree)
 ---------------------------------
O3-C2-C1-H33=294.61           O3-C2-C1-H34=175.25           O3-C2-C1-H35= 53.60           C4-C2-C1-H33= 51.17           
C4-C2-C1-H34=291.82           C4-C2-C1-H35=170.17           C5-C2-C1-H33=179.03           C5-C2-C1-H34= 59.67           
C5-C2-C1-H35=298.02           B9-O3-C2-C1=219.62            B9-O3-C2-C4=101.58            B9-O3-C2-C5=342.53            
H36-C4-C2-C1=299.57           H36-C4-C2-O3= 57.93           H36-C4-C2-C5=170.49           H37-C4-C2-C1=181.58           
H37-C4-C2-O3=299.94           H37-C4-C2-C5= 52.51           H38-C4-C2-C1= 59.49           H38-C4-C2-O3=177.85           
H38-C4-C2-C5=290.42           C6-C5-C2-C1=258.72            C6-C5-C2-O3=139.48            C6-C5-C2-C4= 24.70            
C7-C5-C2-C1= 24.69            C7-C5-C2-O3=265.44            C7-C5-C2-C4=150.67            O8-C5-C2-C1=139.74            
O8-C5-C2-O3= 20.50            O8-C5-C2-C4=265.72            H39-C6-C5-C2= 59.56           H39-C6-C5-C7=291.67           
H39-C6-C5-O8=174.97           H40-C6-C5-C2=297.82           H40-C6-C5-C7=169.93           H40-C6-C5-O8= 53.24           
H41-C6-C5-C2=178.98           H41-C6-C5-C7= 51.09           H41-C6-C5-O8=294.40           H42-C7-C5-C2=290.13           
H42-C7-C5-C6= 59.17           H42-C7-C5-O8=177.40           H43-C7-C5-C2=170.25           H43-C7-C5-C6=299.29           
H43-C7-C5-O8= 57.52           H44-C7-C5-C2= 52.23           H44-C7-C5-C6=181.27           H44-C7-C5-O8=299.50           
B9-O8-C5-C2=343.48            B9-O8-C5-C6=220.74            B9-O8-C5-C7=102.71            O8-B9-O3-C2=  8.10            
C10-B9-O3-C2=190.47           O3-B9-O8-C5=  6.43            C10-B9-O8-C5=184.06           C11-C10-B9-O3=189.41          
C11-C10-B9-O8= 12.06          C27-C10-B9-O3=  5.22          C27-C10-B9-O8=187.87          
           -------------------------------------------------
          |                Final Singlepoint                |
           -------------------------------------------------

          ...................................................
          :                      SETUP                      :
          :.................................................:
          :  # basis functions                 144          :
          :  # atomic orbitals                 144          :
          :  # shells                           88          :
          :  # electrons                       150          :
          :  max. iterations                   250          :
          :  Hamiltonian                  GFN2-xTB          :
          :  restarted?                      false          :
          :  GBSA solvation                  false          :
          :  PC potential                    false          :
          :  electronic temp.          300.0000000     K    :
          :  accuracy                    1.0000000          :
          :  -> integral cutoff          0.2500000E+02      :
          :  -> integral neglect         0.1000000E-07      :
          :  -> SCF convergence          0.1000000E-05 Eh   :
          :  -> wf. convergence          0.1000000E-03 e    :
          :  Broyden damping             0.4000000          :
          ...................................................

 iter      E             dE          RMSdq      gap      omega  full diag
   1    -83.3569836 -0.833570E+02  0.410E-05    1.66       0.0  T
   2    -83.3569836  0.245706E-10  0.381E-05    1.66     338.8  T
   3    -83.3569836 -0.673737E-10  0.204E-05    1.66     634.3  T

   *** convergence criteria satisfied after 3 iterations ***

         #    Occupation            Energy/Eh            Energy/eV
      -------------------------------------------------------------
         1        2.0000           -0.6876306             -18.7114
       ...           ...                  ...                  ...
        69        2.0000           -0.4006626             -10.9026
        70        2.0000           -0.3969413             -10.8013
        71        2.0000           -0.3962823             -10.7834
        72        2.0000           -0.3960491             -10.7770
        73        2.0000           -0.3913046             -10.6479
        74        2.0000           -0.3644173              -9.9163
        75        2.0000           -0.3292923              -8.9605 (HOMO)
        76                         -0.2683956              -7.3034 (LUMO)
        77                         -0.2187921              -5.9536
        78                         -0.1836089              -4.9963
        79                         -0.1462202              -3.9789
        80                         -0.0952451              -2.5917
       ...                                ...                  ...
       144                          0.6774209              18.4336
      -------------------------------------------------------------
                  HL-Gap            0.0608967 Eh            1.6571 eV
             Fermi-level           -0.2988440 Eh           -8.1320 eV

 SCC (total)                   0 d,  0 h,  0 min,  0.045 sec
 SCC setup                      ...        0 min,  0.000 sec (  0.513%)
 Dispersion                     ...        0 min,  0.000 sec (  0.878%)
 classical contributions        ...        0 min,  0.000 sec (  0.466%)
 integral evaluation            ...        0 min,  0.006 sec ( 13.572%)
 iterations                     ...        0 min,  0.008 sec ( 19.030%)
 molecular gradient             ...        0 min,  0.029 sec ( 64.748%)
 printout                       ...        0 min,  0.000 sec (  0.773%)

         :::::::::::::::::::::::::::::::::::::::::::::::::::::
         ::                     SUMMARY                     ::
         :::::::::::::::::::::::::::::::::::::::::::::::::::::
         :: total energy             -82.282876417889 Eh    ::
         :: gradient norm              0.000349361500 Eh/a0 ::
         :: HOMO-LUMO gap              1.657083091074 eV    ::
         ::.................................................::
         :: SCC energy               -83.356983611730 Eh    ::
         :: -> isotropic ES            0.147829779484 Eh    ::
         :: -> anisotropic ES          0.012147455602 Eh    ::
         :: -> anisotropic XC          0.027575521875 Eh    ::
         :: -> dispersion             -0.062710089050 Eh    ::
         :: repulsion energy           1.073235739334 Eh    ::
         :: add. restraining           0.000153317040 Eh    ::
         :: total charge              -0.000000000000 e     ::
         :::::::::::::::::::::::::::::::::::::::::::::::::::::

           -------------------------------------------------
          |                Property Printout                |
           -------------------------------------------------

    * Orbital Energies and Occupations

         #    Occupation            Energy/Eh            Energy/eV
      -------------------------------------------------------------
         1        2.0000           -0.6876306             -18.7114
       ...           ...                  ...                  ...
        63        2.0000           -0.4348824             -11.8338
        64        2.0000           -0.4316849             -11.7467
        65        2.0000           -0.4224186             -11.4946
        66        2.0000           -0.4204500             -11.4410
        67        2.0000           -0.4175572             -11.3623
        68        2.0000           -0.4156194             -11.3096
        69        2.0000           -0.4006626             -10.9026
        70        2.0000           -0.3969413             -10.8013
        71        2.0000           -0.3962823             -10.7834
        72        2.0000           -0.3960491             -10.7770
        73        2.0000           -0.3913046             -10.6479
        74        2.0000           -0.3644173              -9.9163
        75        2.0000           -0.3292923              -8.9605 (HOMO)
        76                         -0.2683956              -7.3034 (LUMO)
        77                         -0.2187921              -5.9536
        78                         -0.1836089              -4.9963
        79                         -0.1462202              -3.9789
        80                         -0.0952451              -2.5917
        81                         -0.0856996              -2.3320
        82                          0.0101706               0.2768
        83                          0.0120857               0.3289
        84                          0.0288982               0.7864
        85                          0.0298709               0.8128
        86                          0.0575041               1.5648
       ...                                ...                  ...
       144                          0.6774209              18.4336
      -------------------------------------------------------------
                  HL-Gap            0.0608967 Eh            1.6571 eV
             Fermi-level           -0.2988440 Eh           -8.1320 eV

     #   Z          covCN         q      C6AA      α(0)
     1   6 C        3.755    -0.117    22.786     6.806
     2   6 C        3.859     0.130    18.439     6.107
     3   8 O        1.638    -0.379    20.463     6.106
     4   6 C        3.755    -0.116    22.772     6.804
     5   6 C        3.858     0.130    18.442     6.107
     6   6 C        3.755    -0.117    22.800     6.808
     7   6 C        3.755    -0.115    22.759     6.802
     8   8 O        1.638    -0.375    20.379     6.094
     9   5 B        2.658     0.431    15.580     6.647
    10   6 C        3.053    -0.076    29.847     8.960
    11   6 C        2.891    -0.037    28.924     8.818
    12   6 C        2.908    -0.036    28.900     8.815
    13   1 H        0.926     0.027     2.629     2.536
    14   6 C        3.862    -0.016    20.814     6.488
    15   1 H        0.924     0.046     2.372     2.408
    16   6 C        2.866    -0.081    30.020     8.981
    17   5 B        2.661     0.431    15.564     6.641
    18   8 O        1.638    -0.370    20.287     6.080
    19   6 C        3.860     0.129    18.457     6.110
    20   6 C        3.755    -0.117    22.797     6.808
    21   6 C        3.755    -0.116    22.778     6.805
    22   6 C        3.860     0.129    18.456     6.110
    23   6 C        3.755    -0.116    22.783     6.806
    24   6 C        3.755    -0.117    22.805     6.809
    25   8 O        1.638    -0.371    20.300     6.082
    26   6 C        2.897    -0.028    28.690     8.782
    27   6 C        3.860    -0.007    20.659     6.464
    28   1 H        0.925     0.048     2.346     2.395
    29   6 C        3.081    -0.021    28.431     8.741
    30   6 C        2.888    -0.036    28.887     8.812
    31   6 C        2.909    -0.031    28.769     8.795
    32   1 H        0.926     0.029     2.606     2.524
    33   1 H        0.925     0.054     2.274     2.358
    34   1 H        0.925     0.039     2.460     2.453
    35   1 H        0.925     0.051     2.311     2.377
    36   1 H        0.925     0.051     2.303     2.373
    37   1 H        0.925     0.043     2.405     2.425
    38   1 H        0.925     0.042     2.424     2.435
    39   1 H        0.925     0.039     2.458     2.452
    40   1 H        0.925     0.052     2.295     2.369
    41   1 H        0.925     0.054     2.271     2.357
    42   1 H        0.925     0.042     2.421     2.433
    43   1 H        0.925     0.052     2.300     2.372
    44   1 H        0.925     0.042     2.419     2.432
    45   1 H        0.925     0.035     2.510     2.478
    46   1 H        0.925     0.054     2.269     2.356
    47   1 H        0.925     0.040     2.455     2.450
    48   1 H        0.925     0.052     2.297     2.370
    49   1 H        0.925     0.052     2.295     2.369
    50   1 H        0.925     0.044     2.399     2.422
    51   1 H        0.925     0.042     2.419     2.432
    52   1 H        0.925     0.043     2.416     2.430
    53   1 H        0.925     0.052     2.291     2.367
    54   1 H        0.925     0.044     2.400     2.423
    55   1 H        0.925     0.040     2.452     2.449
    56   1 H        0.925     0.052     2.293     2.368
    57   1 H        0.925     0.054     2.266     2.354
    58   1 H        0.925     0.037     2.485     2.465
    59   1 H        0.926     0.037     2.485     2.465
    60   1 H        0.925     0.026     2.641     2.542

 Mol. C6AA /au·bohr⁶  :      33347.657442
 Mol. C8AA /au·bohr⁸  :     773701.690666
 Mol. α(0) /au        :        277.627506


Wiberg/Mayer (AO) data.
largest (>0.10) Wiberg bond orders for each atom

 ---------------------------------------------------------------------------
     #   Z sym  total        # sym  WBO       # sym  WBO       # sym  WBO
 ---------------------------------------------------------------------------
     1   6 C    3.994 --     2 C    0.997    34 H    0.985    33 H    0.983
                            35 H    0.982
     2   6 C    3.944 --     1 C    0.997     4 C    0.990     3 O    0.954
                             5 C    0.937
     3   8 O    2.215 --     9 B    1.110     2 C    0.954
     4   6 C    3.994 --     2 C    0.990    38 H    0.984    37 H    0.984
                            36 H    0.983
     5   6 C    3.943 --     6 C    0.996     7 C    0.990     8 O    0.954
                             2 C    0.937
     6   6 C    3.994 --     5 C    0.996    39 H    0.985    41 H    0.983
                            40 H    0.982
     7   6 C    3.994 --     5 C    0.990    42 H    0.984    44 H    0.984
                            43 H    0.983
     8   8 O    2.222 --     9 B    1.117     5 C    0.954
     9   5 B    3.390 --     8 O    1.117     3 O    1.110    10 C    1.031
    10   6 C    3.923 --    11 C    1.309     9 B    1.031    27 C    0.929
                            29 C    0.380    31 C    0.150
    11   6 C    3.991 --    12 C    1.633    10 C    1.309    45 H    0.959
    12   6 C    3.973 --    11 C    1.633    14 C    0.972    13 H    0.971
                            31 C    0.165    29 C    0.137
    13   1 H    0.999 --    12 C    0.971
    14   6 C    3.994 --    16 C    0.988    31 C    0.981    12 C    0.972
                            15 H    0.971
    15   1 H    0.998 --    14 C    0.971
    16   6 C    3.976 --    26 C    1.850    17 B    0.999    14 C    0.988
    17   5 B    3.375 --    25 O    1.131    18 O    1.129    16 C    0.999
    18   8 O    2.235 --    17 B    1.129    19 C    0.953
    19   6 C    3.943 --    20 C    0.997    21 C    0.991    18 O    0.953
                            22 C    0.936
    20   6 C    3.994 --    19 C    0.997    47 H    0.985    46 H    0.983
                            48 H    0.982
    21   6 C    3.994 --    19 C    0.991    51 H    0.984    50 H    0.984
                            49 H    0.983
    22   6 C    3.943 --    24 C    0.996    23 C    0.990    25 O    0.953
                            19 C    0.936
    23   6 C    3.995 --    22 C    0.990    52 H    0.984    54 H    0.984
                            53 H    0.983
    24   6 C    3.994 --    22 C    0.996    55 H    0.985    57 H    0.983
                            56 H    0.982
    25   8 O    2.235 --    17 B    1.131    22 C    0.953
    26   6 C    3.987 --    16 C    1.850    27 C    1.024    58 H    0.966
    27   6 C    3.990 --    26 C    1.024    29 C    0.976    28 H    0.968
                            10 C    0.929
    28   1 H    0.998 --    27 C    0.968
    29   6 C    3.941 --    30 C    1.360    27 C    0.976    59 H    0.973
                            10 C    0.380    12 C    0.137
    30   6 C    3.992 --    31 C    1.596    29 C    1.360    60 H    0.962
    31   6 C    3.959 --    30 C    1.596    14 C    0.981    32 H    0.972
                            12 C    0.165    10 C    0.150
    32   1 H    0.999 --    31 C    0.972
    33   1 H    0.997 --     1 C    0.983
    34   1 H    0.998 --     1 C    0.985
    35   1 H    0.997 --     1 C    0.982
    36   1 H    0.997 --     4 C    0.983
    37   1 H    0.998 --     4 C    0.984
    38   1 H    0.998 --     4 C    0.984
    39   1 H    0.998 --     6 C    0.985
    40   1 H    0.997 --     6 C    0.982
    41   1 H    0.997 --     6 C    0.983
    42   1 H    0.998 --     7 C    0.984
    43   1 H    0.997 --     7 C    0.983
    44   1 H    0.998 --     7 C    0.984
    45   1 H    0.999 --    11 C    0.959
    46   1 H    0.997 --    20 C    0.983
    47   1 H    0.998 --    20 C    0.985
    48   1 H    0.997 --    20 C    0.982
    49   1 H    0.997 --    21 C    0.983
    50   1 H    0.998 --    21 C    0.984
    51   1 H    0.998 --    21 C    0.984
    52   1 H    0.998 --    23 C    0.984
    53   1 H    0.997 --    23 C    0.983
    54   1 H    0.998 --    23 C    0.984
    55   1 H    0.998 --    24 C    0.985
    56   1 H    0.997 --    24 C    0.982
    57   1 H    0.997 --    24 C    0.983
    58   1 H    0.998 --    26 C    0.966
    59   1 H    0.998 --    29 C    0.973
    60   1 H    0.999 --    30 C    0.962
 ---------------------------------------------------------------------------

Topologies differ in total number of bonds
Writing topology from bond orders to xtbtopo.mol

molecular dipole:
                 x           y           z       tot (Debye)
 q only:       -0.299      -0.316       0.053
   full:       -0.141      -0.372      -0.089       1.036
molecular quadrupole (traceless):
                xx          xy          yy          xz          yz          zz
 q only:      -36.468      25.171      35.306     -30.260     -15.871       1.162
  q+dip:      -33.508      10.574      45.367     -22.149      -2.815     -11.859
   full:      -33.784       9.512      46.880     -23.468      -4.236     -13.096

           -------------------------------------------------
          |                Geometry Summary                 |
           -------------------------------------------------

      molecular mass/u    :      382.1099696
   center of mass at/Å    :        2.9383588     -35.9462965      21.8374039
  moments of inertia/u·Å² :        0.1184551E+04   0.6886783E+04   0.7129871E+04
rotational constants/cm⁻¹ :        0.1423124E-01   0.2447824E-02   0.2364367E-02

 * 56 selected distances

     #   Z          #   Z                                           value/Å
     1   6 C        2   6 C                                       1.5269246
     2   6 C        3   8 O                                       1.4262650
     2   6 C        4   6 C                                       1.5342686
     5   6 C        6   6 C                                       1.5270856
     5   6 C        7   6 C                                       1.5341724
     5   6 C        8   8 O                                       1.4265319
     3   8 O        9   5 B                                       1.3726037
     8   8 O        9   5 B                                       1.3702166
     9   5 B       10   6 C                                       1.5445404
    10   6 C       11   6 C                                       1.4086579
    11   6 C       12   6 C                                       1.3562856
    12   6 C       13   1 H                                       1.0805697
    14   6 C       15   1 H                                       1.0919146
    16   6 C       17   5 B                                       1.5600768 (max)
    17   5 B       18   8 O                                       1.3679297
    18   8 O       19   6 C                                       1.4267317
    19   6 C       20   6 C                                       1.5269403
    19   6 C       21   6 C                                       1.5341137
    22   6 C       23   6 C                                       1.5340503
    22   6 C       24   6 C                                       1.5270636
    17   5 B       25   8 O                                       1.3670673
    22   6 C       25   8 O                                       1.4272186
    16   6 C       26   6 C                                       1.3332236
    26   6 C       27   6 C                                       1.4860834
    27   6 C       28   1 H                                       1.0901608
    29   6 C       30   6 C                                       1.3941544
    30   6 C       31   6 C                                       1.3608390
    31   6 C       32   1 H                                       1.0806570
     1   6 C       33   1 H                                       1.0872846
     1   6 C       34   1 H                                       1.0866620
     1   6 C       35   1 H                                       1.0852373
     4   6 C       36   1 H                                       1.0877421
     4   6 C       37   1 H                                       1.0872332
     4   6 C       38   1 H                                       1.0857546
     6   6 C       39   1 H                                       1.0866597
     6   6 C       40   1 H                                       1.0851271
     6   6 C       41   1 H                                       1.0871903
     7   6 C       42   1 H                                       1.0858881
     7   6 C       43   1 H                                       1.0876274
     7   6 C       44   1 H                                       1.0872007
    11   6 C       45   1 H                                       1.0847206
    20   6 C       46   1 H                                       1.0872237
    20   6 C       47   1 H                                       1.0866820
    20   6 C       48   1 H                                       1.0851511
    21   6 C       49   1 H                                       1.0876362
    21   6 C       50   1 H                                       1.0871602
    21   6 C       51   1 H                                       1.0858670
    23   6 C       52   1 H                                       1.0858986
    23   6 C       53   1 H                                       1.0875483
    23   6 C       54   1 H                                       1.0870555
    24   6 C       55   1 H                                       1.0866964
    24   6 C       56   1 H                                       1.0850753
    24   6 C       57   1 H                                       1.0871351
    26   6 C       58   1 H                                       1.0817410
    29   6 C       59   1 H                                       1.0788537 (min)
    30   6 C       60   1 H                                       1.0852721

 * 5 distinct bonds (by element types)

   Z      Z             #   av. dist./Å        max./Å        min./Å
   1 H    6 C          32     1.0860196     1.0919146     1.0788537
   5 B    6 C           2     1.5523086     1.5600768     1.5445404
   6 C    6 C          14     1.4702759     1.5342686     1.3332236
   5 B    8 O           4     1.3694543     1.3726037     1.3670673
   6 C    8 O           4     1.4266868     1.4272186     1.4262650


optimized geometry written to: xtbopt.xyz


           -------------------------------------------------
          | TOTAL ENERGY              -82.282876417889 Eh   |
          | GRADIENT NORM               0.000349361500 Eh/α |
          | HOMO-LUMO GAP               1.657083091074 eV   |
           -------------------------------------------------

------------------------------------------------------------------------
 * finished run on 2022/07/09 at 18:33:30.240     
------------------------------------------------------------------------
 total:
 * wall-time:     0 d,  0 h,  0 min,  1.611 sec
 *  cpu-time:     0 d,  0 h,  0 min,  1.605 sec
 * ratio c/w:     0.996 speedup
 SCF:
 * wall-time:     0 d,  0 h,  0 min,  0.072 sec
 *  cpu-time:     0 d,  0 h,  0 min,  0.071 sec
 * ratio c/w:     0.994 speedup
 ANC optimizer:
 * wall-time:     0 d,  0 h,  0 min,  1.527 sec
 *  cpu-time:     0 d,  0 h,  0 min,  1.522 sec
 * ratio c/w:     0.996 speedup

