      -----------------------------------------------------------      
     |                   =====================                   |     
     |                           x T B                           |     
     |                   =====================                   |     
     |                         S. Grimme                         |     
     |          Mulliken Center for Theoretical Chemistry        |     
     |                    University of Bonn                     |     
      -----------------------------------------------------------      

   * xtb version 6.5.0 (homebrew) compiled by 'nhattrup@GPGGRP-SHANNON.CHEME.CMU.EDU' on 

   xtb is free software: you can redistribute it and/or modify it under
   the terms of the GNU Lesser General Public License as published by
   the Free Software Foundation, either version 3 of the License, or
   (at your option) any later version.
   
   xtb is distributed in the hope that it will be useful,
   but WITHOUT ANY WARRANTY; without even the implied warranty of
   MERCHANTABILITY or FITNESS FOR A PARTICULAR PURPOSE.  See the
   GNU Lesser General Public License for more details.
   
   Cite this work as:
   * C. Bannwarth, E. Caldeweyher, S. Ehlert, A. Hansen, P. Pracht,
     J. Seibert, S. Spicher, S. Grimme, WIREs Comput. Mol. Sci., 2020, 11,
     e01493. DOI: 10.1002/wcms.1493
   
   for GFN2-xTB:
   * C. Bannwarth, S. Ehlert and S. Grimme., J. Chem. Theory Comput., 2019,
     15, 1652-1671. DOI: 10.1021/acs.jctc.8b01176
   for GFN1-xTB:
   * S. Grimme, C. Bannwarth, P. Shushkov, J. Chem. Theory Comput., 2017,
     13, 1989-2009. DOI: 10.1021/acs.jctc.7b00118
   for GFN0-xTB:
   * P. Pracht, E. Caldeweyher, S. Ehlert, S. Grimme, ChemRxiv, 2019, preprint.
     DOI: 10.26434/chemrxiv.8326202.v1
   for GFN-FF:
   * S. Spicher and S. Grimme, Angew. Chem. Int. Ed., 2020, 59, 15665-15673.
     DOI: 10.1002/anie.202004239
   
   for ALPB and GBSA implicit solvation:
   * S. Ehlert, M. Stahn, S. Spicher, S. Grimme, J. Chem. Theory Comput.,
     2021, 17, 4250-4261. DOI: 10.1021/acs.jctc.1c00471
   
   for DFT-D4:
   * E. Caldeweyher, C. Bannwarth and S. Grimme, J. Chem. Phys., 2017,
     147, 034112. DOI: 10.1063/1.4993215
   * E. Caldeweyher, S. Ehlert, A. Hansen, H. Neugebauer, S. Spicher,
     C. Bannwarth and S. Grimme, J. Chem. Phys., 2019, 150, 154122.
     DOI: 10.1063/1.5090222
   * E. Caldeweyher, J.-M. Mewes, S. Ehlert and S. Grimme, Phys. Chem. Chem. Phys.
     2020, 22, 8499-8512. DOI: 10.1039/D0CP00502A
   
   for sTDA-xTB:
   * S. Grimme and C. Bannwarth, J. Chem. Phys., 2016, 145, 054103.
     DOI: 10.1063/1.4959605
   
   in the mass-spec context:
   * V. Asgeirsson, C. Bauer and S. Grimme, Chem. Sci., 2017, 8, 4879.
     DOI: 10.1039/c7sc00601b
   * J. Koopman and S. Grimme, ACS Omega 2019, 4, 12, 15120-15133.
     DOI: 10.1021/acsomega.9b02011
   
   for metadynamics refer to:
   * S. Grimme, J. Chem. Theory Comput., 2019, 155, 2847-2862
     DOI: 10.1021/acs.jctc.9b00143
   
   for SPH calculations refer to:
   * S. Spicher and S. Grimme, J. Chem. Theory Comput., 2021, 17, 1701-1714
     DOI: 10.1021/acs.jctc.0c01306
   
   with help from (in alphabetical order)
   P. Atkinson, C. Bannwarth, F. Bohle, G. Brandenburg, E. Caldeweyher
   M. Checinski, S. Dohm, S. Ehlert, S. Ehrlich, I. Gerasimov, C. Hölzer
   A. Katbashev, J. Koopman, C. Lavigne, S. Lehtola, F. März, M. Müller,
   F. Musil, H. Neugebauer, J. Pisarek, C. Plett, P. Pracht, F. Pultar,
   J. Seibert, P. Shushkov, S. Spicher, M. Stahn, M. Steiner, T. Strunk,
   J. Stückrath, T. Rose, and J. Unsleber
   
 * started run on 2022/07/09 at 18:33:15.823     

           -------------------------------------------------
          |                Calculation Setup                |
           -------------------------------------------------

          program call               : /opt/homebrew/bin/xtb bvl_bpin2_scan_5-3_xtb.xyz --chrg 0 --uhf 0 --opt --input xcontrol_bvl_bpin2_scan_5-3_xtb
          coordinate file            : bvl_bpin2_scan_5-3_xtb.xyz
          omp threads                :                     1

   ID    Z sym.   atoms
    1    6 C      1, 2, 4-7, 10-12, 14, 16, 19-24, 26, 27, 29-31
    2    8 O      3, 8, 18, 25
    3    5 B      9, 17
    4    1 H      13, 15, 28, 32-60
constraining bond 12 31 to    2.0556000 Å, actual value:    1.9402999 Å
constraining bond 10 29 to    2.1667000 Å, actual value:    2.2770407 Å

           -------------------------------------------------
          |                 G F N 2 - x T B                 |
           -------------------------------------------------

        Reference                      10.1021/acs.jctc.8b01176
      * Hamiltonian:
        H0-scaling (s, p, d)           1.850000    2.230000    2.230000
        zeta-weighting                 0.500000
      * Dispersion:
        s8                             2.700000
        a1                             0.520000
        a2                             5.000000
        s9                             5.000000
      * Repulsion:
        kExp                           1.500000    1.000000
        rExp                           1.000000
      * Coulomb:
        alpha                          2.000000
        third order                    shell-resolved
        anisotropic                    true
        a3                             3.000000
        a5                             4.000000
        cn-shift                       1.200000
        cn-exp                         4.000000
        max-rad                        5.000000


          ...................................................
          :                      SETUP                      :
          :.................................................:
          :  # basis functions                 144          :
          :  # atomic orbitals                 144          :
          :  # shells                           88          :
          :  # electrons                       150          :
          :  max. iterations                   250          :
          :  Hamiltonian                  GFN2-xTB          :
          :  restarted?                      false          :
          :  GBSA solvation                  false          :
          :  PC potential                    false          :
          :  electronic temp.          300.0000000     K    :
          :  accuracy                    1.0000000          :
          :  -> integral cutoff          0.2500000E+02      :
          :  -> integral neglect         0.1000000E-07      :
          :  -> SCF convergence          0.1000000E-05 Eh   :
          :  -> wf. convergence          0.1000000E-03 e    :
          :  Broyden damping             0.4000000          :
          ...................................................

 iter      E             dE          RMSdq      gap      omega  full diag
   1    -82.9450037 -0.829450E+02  0.470E+00    2.67       0.0  T
   2    -83.3231121 -0.378108E+00  0.289E+00    2.51       1.0  T
   3    -83.3335681 -0.104561E-01  0.141E+00    2.67       1.0  T
   4    -83.3524478 -0.188797E-01  0.559E-01    2.64       1.0  T
   5    -83.3704013 -0.179535E-01  0.228E-01    2.65       1.0  T
   6    -83.3725789 -0.217754E-02  0.111E-01    2.65       1.0  T
   7    -83.3727099 -0.130998E-03  0.311E-02    2.65       1.0  T
   8    -83.3727327 -0.228420E-04  0.138E-02    2.65       1.0  T
   9    -83.3727389 -0.615575E-05  0.610E-03    2.65       2.1  T
  10    -83.3727399 -0.995868E-06  0.290E-03    2.65       4.5  T
  11    -83.3727400 -0.100741E-06  0.128E-03    2.65      10.1  T
  12    -83.3727401 -0.898808E-07  0.371E-04    2.65      34.8  T
  13    -83.3727401 -0.111311E-08  0.178E-04    2.65      72.6  T

   *** convergence criteria satisfied after 13 iterations ***

         #    Occupation            Energy/Eh            Energy/eV
      -------------------------------------------------------------
         1        2.0000           -0.6877091             -18.7135
       ...           ...                  ...                  ...
        69        2.0000           -0.4041621             -10.9978
        70        2.0000           -0.3972734             -10.8104
        71        2.0000           -0.3949907             -10.7482
        72        2.0000           -0.3928657             -10.6904
        73        2.0000           -0.3898180             -10.6075
        74        2.0000           -0.3574738              -9.7274
        75        2.0000           -0.3385756              -9.2131 (HOMO)
        76                         -0.2413046              -6.5662 (LUMO)
        77                         -0.2184705              -5.9449
        78                         -0.1891098              -5.1459
        79                         -0.1239050              -3.3716
        80                         -0.0988128              -2.6888
       ...                                ...                  ...
       144                          0.6829425              18.5838
      -------------------------------------------------------------
                  HL-Gap            0.0972710 Eh            2.6469 eV
             Fermi-level           -0.2899401 Eh           -7.8897 eV

 SCC (total)                   0 d,  0 h,  0 min,  0.071 sec
 SCC setup                      ...        0 min,  0.000 sec (  0.348%)
 Dispersion                     ...        0 min,  0.000 sec (  0.603%)
 classical contributions        ...        0 min,  0.000 sec (  0.253%)
 integral evaluation            ...        0 min,  0.006 sec (  8.640%)
 iterations                     ...        0 min,  0.036 sec ( 51.089%)
 molecular gradient             ...        0 min,  0.028 sec ( 38.588%)
 printout                       ...        0 min,  0.000 sec (  0.470%)

         :::::::::::::::::::::::::::::::::::::::::::::::::::::
         ::                     SUMMARY                     ::
         :::::::::::::::::::::::::::::::::::::::::::::::::::::
         :: total energy             -82.114014767992 Eh    ::
         :: gradient norm              1.680313828502 Eh/a0 ::
         :: HOMO-LUMO gap              2.646878449167 eV    ::
         ::.................................................::
         :: SCC energy               -83.372740063123 Eh    ::
         :: -> isotropic ES            0.147644560495 Eh    ::
         :: -> anisotropic ES          0.012431087059 Eh    ::
         :: -> anisotropic XC          0.027036959005 Eh    ::
         :: -> dispersion             -0.061700876488 Eh    ::
         :: repulsion energy           1.076096092977 Eh    ::
         :: add. restraining           0.181904258651 Eh    ::
         :: total charge               0.000000000000 e     ::
         :::::::::::::::::::::::::::::::::::::::::::::::::::::

      ----------------------------------------------------------- 
     |                   =====================                   |
     |                        A N C O P T                        |
     |                   =====================                   |
     |               Approximate Normal Coordinate               |
     |                Rational Function Optimizer                |
      ----------------------------------------------------------- 

          ...................................................
          :                      SETUP                      :
          :.................................................:
          :   optimization level            normal          :
          :   max. optcycles                   200          :
          :   ANC micro-cycles                  20          :
          :   degrees of freedom               174          :
          :.................................................:
          :   RF solver                   davidson          :
          :   write xtbopt.log                true          :
          :   linear?                        false          :
          :   energy convergence         0.5000000E-05 Eh   :
          :   grad. convergence          0.1000000E-02 Eh/α :
          :   maximium RF displ.         1.0000000          :
          :   Hlow (freq-cutoff)         0.1000000E-01      :
          :   Hmax (freq-cutoff)         5.0000000          :
          :   S6 in model hess.         20.0000000          :
          ...................................................

generating ANC from model Hessian ...
Using Lindh-Hessian (1995)
 Shifting diagonal of input Hessian by   0.22249012038635149     
 Lowest  eigenvalues of input Hessian
    0.010000    0.140069    0.000000    0.000000    0.000000    0.000000
    0.000000    0.000000    0.222590    0.222628    0.222763    0.224058
    0.224419    0.225180    0.225784    0.225849    0.227135    0.227640
 Highest eigenvalues
    1.935097    2.106451    2.115084    2.246645    8.853238    8.946874


........................................................................
.............................. CYCLE    1 ..............................
........................................................................
   1    -83.3727401 -0.833727E+02  0.699E-05    2.65       0.0  T
   2    -83.3727401 -0.278007E-09  0.412E-05    2.65     313.2  T
   3    -83.3727401 -0.110759E-09  0.147E-05    2.65     875.7  T
     SCC iter.                  ...        0 min,  0.009 sec
     gradient                   ...        0 min,  0.029 sec
 * total energy  :   -82.1140148 Eh     change       -0.1748830E-08 Eh
   gradient norm :     1.6803146 Eh/α   predicted     0.0000000E+00 (-100.00%)
   displ. norm   :     0.3111976 α      lambda       -0.5165200E+00
   maximum displ.:     0.2710854 α      in ANC's #174, #173, #127, ...

........................................................................
.............................. CYCLE    2 ..............................
........................................................................
   1    -83.3590215 -0.833590E+02  0.339E-01    2.44       0.0  T
   2    -83.3589744  0.471159E-04  0.305E-01    2.44       1.0  T
   3    -83.3613584 -0.238400E-02  0.155E-01    2.44       1.0  T
   4    -83.3614343 -0.758816E-04  0.541E-02    2.44       1.0  T
   5    -83.3615842 -0.149913E-03  0.108E-02    2.44       1.2  T
   6    -83.3615883 -0.417987E-05  0.532E-03    2.44       2.4  T
   7    -83.3615886 -0.235507E-06  0.356E-03    2.44       3.6  T
   8    -83.3615891 -0.542794E-06  0.815E-04    2.44      15.8  T
   9    -83.3615891 -0.187967E-07  0.337E-04    2.44      38.3  T
     SCC iter.                  ...        0 min,  0.024 sec
     gradient                   ...        0 min,  0.028 sec
 * total energy  :   -82.2472833 Eh     change       -0.1332685E+00 Eh
   gradient norm :     0.8273492 Eh/α   predicted    -0.2834323E+00 ( 112.68%)
   displ. norm   :     0.1054708 α      lambda       -0.8322971E-01
   maximum displ.:     0.0898747 α      in ANC's #174, #173, #127, ...

........................................................................
.............................. CYCLE    3 ..............................
........................................................................
   1    -83.3661429 -0.833661E+02  0.115E-01    2.47       0.0  T
   2    -83.3661372  0.574610E-05  0.112E-01    2.47       1.0  T
   3    -83.3665816 -0.444466E-03  0.560E-02    2.47       1.0  T
   4    -83.3665618  0.197963E-04  0.221E-02    2.47       1.0  T
   5    -83.3665861 -0.242530E-04  0.486E-03    2.47       2.7  T
   6    -83.3665872 -0.113794E-05  0.197E-03    2.47       6.5  T
   7    -83.3665873 -0.684170E-07  0.124E-03    2.47      10.4  T
   8    -83.3665874 -0.564197E-07  0.261E-04    2.47      49.6  T
   9    -83.3665874 -0.118966E-08  0.107E-04    2.47     120.9  T
     SCC iter.                  ...        0 min,  0.025 sec
     gradient                   ...        0 min,  0.028 sec
 * total energy  :   -82.2898980 Eh     change       -0.4261466E-01 Eh
   gradient norm :     0.0315894 Eh/α   predicted    -0.4208088E-01 (  -1.25%)
   displ. norm   :     0.0419390 α      lambda       -0.9557632E-03
   maximum displ.:     0.0178993 α      in ANC's #37, #127, #116, ...

........................................................................
.............................. CYCLE    4 ..............................
........................................................................
   1    -83.3670753 -0.833671E+02  0.286E-02    2.48       0.0  T
   2    -83.3670765 -0.117989E-05  0.180E-02    2.48       1.0  T
   3    -83.3670687  0.781566E-05  0.145E-02    2.48       1.0  T
   4    -83.3670810 -0.123417E-04  0.335E-03    2.48       3.8  T
   5    -83.3670816 -0.571880E-06  0.104E-03    2.48      12.5  T
   6    -83.3670817 -0.571606E-07  0.422E-04    2.48      30.6  T
   7    -83.3670817 -0.313065E-08  0.228E-04    2.48      56.7  T
     SCC iter.                  ...        0 min,  0.019 sec
     gradient                   ...        0 min,  0.028 sec
 * total energy  :   -82.2906646 Eh     change       -0.7666182E-03 Eh
   gradient norm :     0.0187642 Eh/α   predicted    -0.4787858E-03 ( -37.55%)
   displ. norm   :     0.1878025 α      lambda       -0.1640005E-02
   maximum displ.:     0.1504793 α      in ANC's #1, #37, #43, ...

........................................................................
.............................. CYCLE    5 ..............................
........................................................................
   1    -83.3660120 -0.833660E+02  0.115E-01    2.46       0.0  T
   2    -83.3660190 -0.698800E-05  0.691E-02    2.47       1.0  T
   3    -83.3658968  0.122204E-03  0.492E-02    2.46       1.0  T
   4    -83.3660366 -0.139816E-03  0.721E-03    2.47       1.8  T
   5    -83.3660400 -0.345243E-05  0.228E-03    2.46       5.7  T
   6    -83.3660402 -0.187014E-06  0.112E-03    2.46      11.5  T
   7    -83.3660403 -0.320953E-07  0.623E-04    2.46      20.7  T
   8    -83.3660403 -0.135207E-07  0.208E-04    2.46      62.0  T
     SCC iter.                  ...        0 min,  0.022 sec
     gradient                   ...        0 min,  0.028 sec
 * total energy  :   -82.2902120 Eh     change        0.4525466E-03 Eh
   gradient norm :     0.0368868 Eh/α   predicted    -0.8493479E-03 (-287.68%)
   displ. norm   :     0.3032962 α      lambda       -0.4373731E-02
   maximum displ.:     0.2606389 α      in ANC's #1, #37, #43, ...

........................................................................
.............................. CYCLE    6 ..............................
........................................................................
   1    -83.3669013 -0.833669E+02  0.181E-01    2.45       0.0  T
   2    -83.3668951  0.618383E-05  0.109E-01    2.45       1.0  T
   3    -83.3664825  0.412620E-03  0.974E-02    2.45       1.0  T
   4    -83.3669723 -0.489873E-03  0.139E-02    2.45       1.0  T
   5    -83.3669869 -0.145972E-04  0.300E-03    2.45       4.3  T
   6    -83.3669872 -0.257588E-06  0.163E-03    2.45       7.9  T
   7    -83.3669872 -0.491083E-07  0.711E-04    2.45      18.2  T
   8    -83.3669872 -0.173060E-07  0.296E-04    2.45      43.6  T
     SCC iter.                  ...        0 min,  0.022 sec
     gradient                   ...        0 min,  0.028 sec
 * total energy  :   -82.2894761 Eh     change        0.7359638E-03 Eh
   gradient norm :     0.0586732 Eh/α   predicted    -0.2389090E-02 (-424.62%)
   displ. norm   :     0.1692991 α      lambda       -0.4627290E-02
   maximum displ.:     0.0940085 α      in ANC's #1, #37, #43, ...

........................................................................
.............................. CYCLE    7 ..............................
........................................................................
   1    -83.3688311 -0.833688E+02  0.110E-01    2.48       0.0  T
   2    -83.3688375 -0.643070E-05  0.668E-02    2.49       1.0  T
   3    -83.3686806  0.156957E-03  0.574E-02    2.48       1.0  T
   4    -83.3688794 -0.198851E-03  0.102E-02    2.48       1.3  T
   5    -83.3688854 -0.598687E-05  0.333E-03    2.48       3.9  T
   6    -83.3688860 -0.633289E-06  0.135E-03    2.48       9.5  T
   7    -83.3688860 -0.164646E-07  0.768E-04    2.48      16.8  T
   8    -83.3688861 -0.193403E-07  0.243E-04    2.48      53.1  T
     SCC iter.                  ...        0 min,  0.022 sec
     gradient                   ...        0 min,  0.027 sec
 * total energy  :   -82.2915755 Eh     change       -0.2099455E-02 Eh
   gradient norm :     0.0324771 Eh/α   predicted    -0.2382081E-02 (  13.46%)
   displ. norm   :     0.0420444 α      lambda       -0.6562063E-03
   maximum displ.:     0.0231622 α      in ANC's #1, #37, #28, ...

........................................................................
.............................. CYCLE    8 ..............................
........................................................................
   1    -83.3691900 -0.833692E+02  0.234E-02    2.47       0.0  T
   2    -83.3691902 -0.168363E-06  0.140E-02    2.47       1.0  T
   3    -83.3691866  0.358683E-05  0.822E-03    2.47       1.6  T
   4    -83.3691905 -0.391722E-05  0.114E-03    2.47      11.3  T
   5    -83.3691906 -0.862704E-07  0.388E-04    2.47      33.3  T
   6    -83.3691906 -0.379650E-08  0.211E-04    2.47      61.2  T
     SCC iter.                  ...        0 min,  0.016 sec
     gradient                   ...        0 min,  0.028 sec
 * total energy  :   -82.2917773 Eh     change       -0.2018170E-03 Eh
   gradient norm :     0.0113085 Eh/α   predicted    -0.1699039E-03 ( -15.81%)
   displ. norm   :     0.0488011 α      lambda       -0.5198061E-03
   maximum displ.:     0.0301997 α      in ANC's #37, #28, #33, ...

........................................................................
.............................. CYCLE    9 ..............................
........................................................................
   1    -83.3695434 -0.833695E+02  0.232E-02    2.47       0.0  T
   2    -83.3695434 -0.626224E-07  0.137E-02    2.47       1.0  T
   3    -83.3695433  0.995518E-07  0.144E-03    2.47       9.0  T
   4    -83.3695434 -0.121714E-06  0.475E-04    2.47      27.2  T
   5    -83.3695435 -0.654691E-08  0.271E-04    2.47      47.6  T
     SCC iter.                  ...        0 min,  0.014 sec
     gradient                   ...        0 min,  0.028 sec
 * total energy  :   -82.2919253 Eh     change       -0.1479502E-03 Eh
   gradient norm :     0.0104500 Eh/α   predicted    -0.8890757E-04 ( -39.91%)
   displ. norm   :     0.1271303 α      lambda       -0.1681001E-02
   maximum displ.:     0.0785666 α      in ANC's #37, #28, #33, ...

........................................................................
.............................. CYCLE   10 ..............................
........................................................................
   1    -83.3703080 -0.833703E+02  0.593E-02    2.47       0.0  T
   2    -83.3703088 -0.761864E-06  0.354E-02    2.47       1.0  T
   3    -83.3702978  0.110506E-04  0.117E-02    2.47       1.1  T
   4    -83.3703097 -0.119660E-04  0.162E-03    2.47       8.0  T
   5    -83.3703098 -0.922813E-07  0.825E-04    2.47      15.7  T
   6    -83.3703098 -0.119680E-07  0.434E-04    2.47      29.7  T
     SCC iter.                  ...        0 min,  0.016 sec
     gradient                   ...        0 min,  0.028 sec
 * total energy  :   -82.2921833 Eh     change       -0.2579765E-03 Eh
   gradient norm :     0.0153287 Eh/α   predicted    -0.2213416E-03 ( -14.20%)
   displ. norm   :     0.0459353 α      lambda       -0.3907437E-03
   maximum displ.:     0.0259041 α      in ANC's #37, #28, #33, ...

........................................................................
.............................. CYCLE   11 ..............................
........................................................................
   1    -83.3706497 -0.833706E+02  0.206E-02    2.48       0.0  T
   2    -83.3706499 -0.131104E-06  0.123E-02    2.48       1.1  T
   3    -83.3706490  0.834062E-06  0.310E-03    2.48       4.2  T
   4    -83.3706499 -0.882040E-06  0.828E-04    2.48      15.6  T
   5    -83.3706499 -0.362105E-07  0.332E-04    2.48      38.9  T
     SCC iter.                  ...        0 min,  0.014 sec
     gradient                   ...        0 min,  0.027 sec
 * total energy  :   -82.2922397 Eh     change       -0.5647137E-04 Eh
   gradient norm :     0.0057662 Eh/α   predicted    -0.4133394E-04 ( -26.81%)
   displ. norm   :     0.0267636 α      lambda       -0.2704326E-03
   maximum displ.:     0.0115877 α      in ANC's #28, #37, #33, ...

........................................................................
.............................. CYCLE   12 ..............................
........................................................................
   1    -83.3710441 -0.833710E+02  0.123E-02    2.48       0.0  T
   2    -83.3710442 -0.966841E-07  0.742E-03    2.48       1.7  T
   3    -83.3710429  0.123739E-05  0.412E-03    2.48       3.1  T
   4    -83.3710443 -0.132210E-05  0.927E-04    2.48      13.9  T
   5    -83.3710443 -0.430753E-07  0.256E-04    2.48      50.4  T
   6    -83.3710443 -0.287588E-08  0.106E-04    2.48     122.0  T
     SCC iter.                  ...        0 min,  0.016 sec
     gradient                   ...        0 min,  0.028 sec
 * total energy  :   -82.2922738 Eh     change       -0.3408689E-04 Eh
   gradient norm :     0.0032721 Eh/α   predicted    -0.2366837E-04 ( -30.56%)
   displ. norm   :     0.0294298 α      lambda       -0.2957171E-03
   maximum displ.:     0.0134532 α      in ANC's #28, #8, #43, ...

........................................................................
.............................. CYCLE   13 ..............................
........................................................................
   1    -83.3714361 -0.833714E+02  0.116E-02    2.48       0.0  T
   2    -83.3714361 -0.427685E-07  0.710E-03    2.48       1.8  T
   3    -83.3714346  0.151600E-05  0.510E-03    2.48       2.5  T
   4    -83.3714363 -0.165220E-05  0.642E-04    2.48      20.1  T
   5    -83.3714363 -0.180494E-07  0.241E-04    2.48      53.6  T
   6    -83.3714363 -0.222782E-08  0.105E-04    2.48     122.6  T
     SCC iter.                  ...        0 min,  0.018 sec
     gradient                   ...        0 min,  0.027 sec
 * total energy  :   -82.2923064 Eh     change       -0.3257184E-04 Eh
   gradient norm :     0.0065853 Eh/α   predicted    -0.2203650E-04 ( -32.34%)
   displ. norm   :     0.0391428 α      lambda       -0.3700387E-03
   maximum displ.:     0.0184349 α      in ANC's #28, #8, #43, ...

........................................................................
.............................. CYCLE   14 ..............................
........................................................................
   1    -83.3716915 -0.833717E+02  0.133E-02    2.48       0.0  T
   2    -83.3716915 -0.291709E-07  0.818E-03    2.48       1.6  T
   3    -83.3716895  0.196141E-05  0.587E-03    2.48       2.2  T
   4    -83.3716917 -0.212760E-05  0.540E-04    2.48      23.9  T
   5    -83.3716917 -0.111957E-07  0.262E-04    2.48      49.3  T
   6    -83.3716917 -0.260295E-08  0.128E-04    2.48     100.7  T
     SCC iter.                  ...        0 min,  0.016 sec
     gradient                   ...        0 min,  0.028 sec
 * total energy  :   -82.2923416 Eh     change       -0.3525768E-04 Eh
   gradient norm :     0.0069555 Eh/α   predicted    -0.2405527E-04 ( -31.77%)
   displ. norm   :     0.0459878 α      lambda       -0.4201824E-03
   maximum displ.:     0.0222135 α      in ANC's #28, #8, #43, ...

........................................................................
.............................. CYCLE   15 ..............................
........................................................................
   1    -83.3716606 -0.833717E+02  0.141E-02    2.48       0.0  T
   2    -83.3716606 -0.418655E-07  0.862E-03    2.48       1.5  T
   3    -83.3716590  0.159397E-05  0.535E-03    2.48       2.4  T
   4    -83.3716607 -0.170577E-05  0.520E-04    2.48      24.8  T
   5    -83.3716607 -0.112351E-07  0.282E-04    2.48      45.8  T
   6    -83.3716607 -0.415507E-08  0.139E-04    2.48      92.9  T
     SCC iter.                  ...        0 min,  0.016 sec
     gradient                   ...        0 min,  0.028 sec
 * total energy  :   -82.2923760 Eh     change       -0.3433629E-04 Eh
   gradient norm :     0.0043189 Eh/α   predicted    -0.2420372E-04 ( -29.51%)
   displ. norm   :     0.0387787 α      lambda       -0.3504371E-03
   maximum displ.:     0.0197785 α      in ANC's #28, #8, #43, ...

........................................................................
.............................. CYCLE   16 ..............................
........................................................................
   1    -83.3713860 -0.833714E+02  0.124E-02    2.48       0.0  T
   2    -83.3713861 -0.610748E-07  0.749E-03    2.48       1.7  T
   3    -83.3713857  0.431296E-06  0.275E-03    2.48       4.7  T
   4    -83.3713861 -0.461845E-06  0.538E-04    2.48      24.0  T
   5    -83.3713861 -0.133158E-07  0.266E-04    2.48      48.6  T
     SCC iter.                  ...        0 min,  0.014 sec
     gradient                   ...        0 min,  0.028 sec
 * total energy  :   -82.2924023 Eh     change       -0.2627527E-04 Eh
   gradient norm :     0.0028411 Eh/α   predicted    -0.1813566E-04 ( -30.98%)
   displ. norm   :     0.0360538 α      lambda       -0.3297205E-03
   maximum displ.:     0.0193418 α      in ANC's #28, #8, #6, ...

........................................................................
.............................. CYCLE   17 ..............................
........................................................................
   1    -83.3710077 -0.833710E+02  0.138E-02    2.48       0.0  T
   2    -83.3710078 -0.493189E-07  0.827E-03    2.48       1.6  T
   3    -83.3710075  0.305203E-06  0.220E-03    2.48       5.9  T
   4    -83.3710078 -0.331059E-06  0.482E-04    2.48      26.8  T
   5    -83.3710078 -0.819296E-08  0.260E-04    2.48      49.6  T
     SCC iter.                  ...        0 min,  0.014 sec
     gradient                   ...        0 min,  0.028 sec
 * total energy  :   -82.2924243 Eh     change       -0.2205198E-04 Eh
   gradient norm :     0.0035890 Eh/α   predicted    -0.1548128E-04 ( -29.80%)
   displ. norm   :     0.0300182 α      lambda       -0.3011547E-03
   maximum displ.:     0.0159940 α      in ANC's #28, #8, #37, ...

........................................................................
.............................. CYCLE   18 ..............................
........................................................................
   1    -83.3707351 -0.833707E+02  0.128E-02    2.49       0.0  T
   2    -83.3707351 -0.181263E-07  0.764E-03    2.49       1.7  T
   3    -83.3707350  0.134562E-06  0.164E-03    2.49       7.9  T
   4    -83.3707351 -0.147364E-06  0.296E-04    2.49      43.6  T
   5    -83.3707351 -0.139909E-08  0.178E-04    2.49      72.7  T
     SCC iter.                  ...        0 min,  0.014 sec
     gradient                   ...        0 min,  0.028 sec
 * total energy  :   -82.2924419 Eh     change       -0.1761819E-04 Eh
   gradient norm :     0.0036523 Eh/α   predicted    -0.1191921E-04 ( -32.35%)
   displ. norm   :     0.0346101 α      lambda       -0.3361384E-03
   maximum displ.:     0.0184827 α      in ANC's #28, #8, #29, ...

........................................................................
.............................. CYCLE   19 ..............................
........................................................................
   1    -83.3705687 -0.833706E+02  0.144E-02    2.49       0.0  T
   2    -83.3705687 -0.143682E-07  0.860E-03    2.49       1.5  T
   3    -83.3705684  0.321236E-06  0.211E-03    2.49       6.1  T
   4    -83.3705688 -0.341533E-06  0.338E-04    2.49      38.2  T
   5    -83.3705688 -0.190717E-08  0.193E-04    2.49      66.9  T
     SCC iter.                  ...        0 min,  0.014 sec
     gradient                   ...        0 min,  0.028 sec
 * total energy  :   -82.2924596 Eh     change       -0.1769532E-04 Eh
   gradient norm :     0.0027406 Eh/α   predicted    -0.1233137E-04 ( -30.31%)
   displ. norm   :     0.0341269 α      lambda       -0.2987571E-03
   maximum displ.:     0.0181908 α      in ANC's #28, #8, #29, ...

........................................................................
.............................. CYCLE   20 ..............................
........................................................................
   1    -83.3705535 -0.833706E+02  0.128E-02    2.49       0.0  T
   2    -83.3705536 -0.138334E-07  0.768E-03    2.49       1.7  T
   3    -83.3705524  0.121112E-05  0.413E-03    2.49       3.1  T
   4    -83.3705536 -0.128651E-05  0.476E-04    2.49      27.1  T
   5    -83.3705536 -0.897272E-08  0.191E-04    2.49      67.6  T
   6    -83.3705536 -0.687805E-09  0.967E-05    2.49     133.6  T
     SCC iter.                  ...        0 min,  0.017 sec
     gradient                   ...        0 min,  0.028 sec
 * total energy  :   -82.2924745 Eh     change       -0.1489104E-04 Eh
   gradient norm :     0.0022396 Eh/α   predicted    -0.1022677E-04 ( -31.32%)
   displ. norm   :     0.0308657 α      lambda       -0.2714908E-03
   maximum displ.:     0.0156835 α      in ANC's #28, #29, #8, ...
 * RMSD in coord.:     0.0859196 α      energy gain  -0.1784597E+00 Eh

generating ANC from model Hessian ...
Using Lindh-Hessian (1995)
 Shifting diagonal of input Hessian by    9.9151173446722952E-003
 Lowest  eigenvalues of input Hessian
    0.000000    0.000000    0.000000    0.000000    0.000000    0.000000
    0.010000    0.010044    0.010084    0.010134    0.010878    0.011742
    0.012226    0.013178    0.013244    0.013422    0.014828    0.015092
 Highest eigenvalues
    1.721932    1.891099    1.905907    1.915758    8.625133    8.686990


........................................................................
.............................. CYCLE   21 ..............................
........................................................................
   1    -83.3706343 -0.833706E+02  0.106E-02    2.50       0.0  T
   2    -83.3706343 -0.170272E-07  0.641E-03    2.50       2.0  T
   3    -83.3706330  0.125286E-05  0.449E-03    2.50       2.9  T
   4    -83.3706344 -0.135391E-05  0.525E-04    2.50      24.6  T
   5    -83.3706344 -0.121452E-07  0.180E-04    2.50      71.9  T
   6    -83.3706344 -0.842803E-09  0.861E-05    2.50     149.9  T
     SCC iter.                  ...        0 min,  0.016 sec
     gradient                   ...        0 min,  0.028 sec
 * total energy  :   -82.2924869 Eh     change       -0.1243010E-04 Eh
   gradient norm :     0.0022335 Eh/α   predicted     0.0000000E+00 (-100.00%)
   displ. norm   :     0.0452800 α      lambda       -0.2943493E-05
   maximum displ.:     0.0195655 α      in ANC's #6, #27, #2, ...

........................................................................
.............................. CYCLE   22 ..............................
........................................................................
   1    -83.3707775 -0.833708E+02  0.130E-02    2.50       0.0  T
   2    -83.3707776 -0.430591E-07  0.774E-03    2.50       1.7  T
   3    -83.3707772  0.346251E-06  0.262E-03    2.50       4.9  T
   4    -83.3707776 -0.369567E-06  0.502E-04    2.50      25.7  T
   5    -83.3707776 -0.150511E-07  0.221E-04    2.50      58.4  T
     SCC iter.                  ...        0 min,  0.014 sec
     gradient                   ...        0 min,  0.028 sec
 * total energy  :   -82.2925178 Eh     change       -0.3086311E-04 Eh
   gradient norm :     0.0013950 Eh/α   predicted    -0.2003943E-04 ( -35.07%)
   displ. norm   :     0.1492131 α      lambda       -0.4861313E-04
   maximum displ.:     0.0729915 α      in ANC's #6, #2, #4, ...

........................................................................
.............................. CYCLE   23 ..............................
........................................................................
   1    -83.3708985 -0.833709E+02  0.339E-02    2.50       0.0  T
   2    -83.3708988 -0.248640E-06  0.202E-02    2.50       1.0  T
   3    -83.3708966  0.213012E-05  0.602E-03    2.50       2.1  T
   4    -83.3708989 -0.227642E-05  0.123E-03    2.50      10.5  T
   5    -83.3708990 -0.841366E-07  0.541E-04    2.50      23.9  T
   6    -83.3708990 -0.578702E-08  0.231E-04    2.50      56.0  T
     SCC iter.                  ...        0 min,  0.016 sec
     gradient                   ...        0 min,  0.028 sec
 * total energy  :   -82.2925518 Eh     change       -0.3402612E-04 Eh
   gradient norm :     0.0018301 Eh/α   predicted    -0.2454864E-04 ( -27.85%)
   displ. norm   :     0.0566184 α      lambda       -0.1554461E-04
   maximum displ.:     0.0293136 α      in ANC's #2, #6, #4, ...

........................................................................
.............................. CYCLE   24 ..............................
........................................................................
   1    -83.3708885 -0.833709E+02  0.113E-02    2.50       0.0  T
   2    -83.3708885 -0.161291E-07  0.683E-03    2.50       1.9  T
   3    -83.3708882  0.339785E-06  0.206E-03    2.50       6.3  T
   4    -83.3708886 -0.364248E-06  0.306E-04    2.50      42.1  T
   5    -83.3708886 -0.270343E-08  0.168E-04    2.50      76.8  T
     SCC iter.                  ...        0 min,  0.014 sec
     gradient                   ...        0 min,  0.028 sec
 * total energy  :   -82.2925702 Eh     change       -0.1841149E-04 Eh
   gradient norm :     0.0033487 Eh/α   predicted    -0.7784545E-05 ( -57.72%)
   displ. norm   :     0.0900448 α      lambda       -0.2910092E-04
   maximum displ.:     0.0479552 α      in ANC's #2, #6, #1, ...

........................................................................
.............................. CYCLE   25 ..............................
........................................................................
   1    -83.3708110 -0.833708E+02  0.169E-02    2.50       0.0  T
   2    -83.3708110 -0.267995E-07  0.102E-02    2.50       1.3  T
   3    -83.3708110  0.401490E-07  0.848E-04    2.50      15.2  T
   4    -83.3708110 -0.451404E-07  0.420E-04    2.50      30.8  T
     SCC iter.                  ...        0 min,  0.011 sec
     gradient                   ...        0 min,  0.028 sec
 * total energy  :   -82.2925907 Eh     change       -0.2048834E-04 Eh
   gradient norm :     0.0022593 Eh/α   predicted    -0.1470814E-04 ( -28.21%)
   displ. norm   :     0.1109976 α      lambda       -0.2024978E-04
   maximum displ.:     0.0613814 α      in ANC's #2, #1, #4, ...

........................................................................
.............................. CYCLE   26 ..............................
........................................................................
   1    -83.3706601 -0.833707E+02  0.171E-02    2.50       0.0  T
   2    -83.3706601 -0.250055E-07  0.103E-02    2.50       1.3  T
   3    -83.3706600  0.107806E-06  0.129E-03    2.50      10.0  T
   4    -83.3706602 -0.124122E-06  0.337E-04    2.50      38.3  T
   5    -83.3706602 -0.367763E-09  0.223E-04    2.50      58.0  T
     SCC iter.                  ...        0 min,  0.014 sec
     gradient                   ...        0 min,  0.028 sec
 * total energy  :   -82.2926067 Eh     change       -0.1595188E-04 Eh
   gradient norm :     0.0009649 Eh/α   predicted    -0.1025249E-04 ( -35.73%)
   displ. norm   :     0.1656781 α      lambda       -0.1713658E-04
   maximum displ.:     0.0946279 α      in ANC's #2, #1, #4, ...

........................................................................
.............................. CYCLE   27 ..............................
........................................................................
   1    -83.3705757 -0.833706E+02  0.217E-02    2.51       0.0  T
   2    -83.3705757 -0.457630E-07  0.130E-02    2.51       1.0  T
   3    -83.3705755  0.258817E-06  0.220E-03    2.51       5.9  T
   4    -83.3705757 -0.287749E-06  0.552E-04    2.51      23.4  T
   5    -83.3705757 -0.520676E-08  0.353E-04    2.51      36.6  T
     SCC iter.                  ...        0 min,  0.014 sec
     gradient                   ...        0 min,  0.028 sec
 * total energy  :   -82.2926270 Eh     change       -0.2029919E-04 Eh
   gradient norm :     0.0024366 Eh/α   predicted    -0.8690473E-05 ( -57.19%)
   displ. norm   :     0.1017387 α      lambda       -0.1711814E-04
   maximum displ.:     0.0603522 α      in ANC's #2, #1, #4, ...

........................................................................
.............................. CYCLE   28 ..............................
........................................................................
   1    -83.3706664 -0.833707E+02  0.112E-02    2.51       0.0  T
   2    -83.3706664 -0.128491E-07  0.670E-03    2.51       1.9  T
   3    -83.3706662  0.162379E-06  0.162E-03    2.51       8.0  T
   4    -83.3706664 -0.174789E-06  0.318E-04    2.51      40.6  T
   5    -83.3706664 -0.263883E-08  0.176E-04    2.51      73.3  T
     SCC iter.                  ...        0 min,  0.014 sec
     gradient                   ...        0 min,  0.028 sec
 * total energy  :   -82.2926426 Eh     change       -0.1557885E-04 Eh
   gradient norm :     0.0017834 Eh/α   predicted    -0.8649222E-05 ( -44.48%)
   displ. norm   :     0.2569746 α      lambda       -0.3018166E-04
   maximum displ.:     0.1534049 α      in ANC's #2, #1, #4, ...

........................................................................
.............................. CYCLE   29 ..............................
........................................................................
   1    -83.3707704 -0.833708E+02  0.270E-02    2.51       0.0  T
   2    -83.3707705 -0.825023E-07  0.161E-02    2.51       1.0  T
   3    -83.3707689  0.158175E-05  0.490E-03    2.51       2.6  T
   4    -83.3707706 -0.168955E-05  0.772E-04    2.51      16.7  T
   5    -83.3707706 -0.160471E-07  0.399E-04    2.51      32.4  T
   6    -83.3707706 -0.923563E-09  0.182E-04    2.51      70.8  T
     SCC iter.                  ...        0 min,  0.017 sec
     gradient                   ...        0 min,  0.028 sec
 * total energy  :   -82.2926769 Eh     change       -0.3431443E-04 Eh
   gradient norm :     0.0020589 Eh/α   predicted    -0.1553599E-04 ( -54.72%)
   displ. norm   :     0.1562139 α      lambda       -0.2091610E-04
   maximum displ.:     0.0951713 α      in ANC's #2, #1, #4, ...

........................................................................
.............................. CYCLE   30 ..............................
........................................................................
   1    -83.3707478 -0.833707E+02  0.154E-02    2.50       0.0  T
   2    -83.3707479 -0.323097E-07  0.922E-03    2.50       1.4  T
   3    -83.3707476  0.307788E-06  0.208E-03    2.50       6.2  T
   4    -83.3707479 -0.329740E-06  0.457E-04    2.50      28.3  T
   5    -83.3707479 -0.622276E-08  0.211E-04    2.50      61.2  T
     SCC iter.                  ...        0 min,  0.014 sec
     gradient                   ...        0 min,  0.028 sec
 * total energy  :   -82.2926943 Eh     change       -0.1742529E-04 Eh
   gradient norm :     0.0023781 Eh/α   predicted    -0.1071806E-04 ( -38.49%)
   displ. norm   :     0.1692006 α      lambda       -0.2276576E-04
   maximum displ.:     0.1039355 α      in ANC's #2, #1, #4, ...

........................................................................
.............................. CYCLE   31 ..............................
........................................................................
   1    -83.3708037 -0.833708E+02  0.169E-02    2.50       0.0  T
   2    -83.3708038 -0.452454E-07  0.101E-02    2.50       1.3  T
   3    -83.3708035  0.246107E-06  0.194E-03    2.50       6.7  T
   4    -83.3708038 -0.262084E-06  0.520E-04    2.50      24.8  T
   5    -83.3708038 -0.101891E-07  0.219E-04    2.50      59.0  T
     SCC iter.                  ...        0 min,  0.014 sec
     gradient                   ...        0 min,  0.028 sec
 * total energy  :   -82.2927136 Eh     change       -0.1931851E-04 Eh
   gradient norm :     0.0011714 Eh/α   predicted    -0.1170905E-04 ( -39.39%)
   displ. norm   :     0.2580507 α      lambda       -0.2159631E-04
   maximum displ.:     0.1616496 α      in ANC's #2, #1, #4, ...

........................................................................
.............................. CYCLE   32 ..............................
........................................................................
   1    -83.3707744 -0.833708E+02  0.252E-02    2.50       0.0  T
   2    -83.3707745 -0.108932E-06  0.150E-02    2.50       1.0  T
   3    -83.3707744  0.122723E-06  0.144E-03    2.50       8.9  T
   4    -83.3707746 -0.129234E-06  0.710E-04    2.50      18.2  T
   5    -83.3707746 -0.285195E-07  0.297E-04    2.50      43.4  T
     SCC iter.                  ...        0 min,  0.014 sec
     gradient                   ...        0 min,  0.028 sec
 * total energy  :   -82.2927399 Eh     change       -0.2629378E-04 Eh
   gradient norm :     0.0006725 Eh/α   predicted    -0.1111905E-04 ( -57.71%)
   displ. norm   :     0.2048921 α      lambda       -0.1716646E-04
   maximum displ.:     0.1322491 α      in ANC's #1, #2, #4, ...

........................................................................
.............................. CYCLE   33 ..............................
........................................................................
   1    -83.3708393 -0.833708E+02  0.201E-02    2.50       0.0  T
   2    -83.3708393 -0.561996E-07  0.119E-02    2.50       1.1  T
   3    -83.3708391  0.258265E-06  0.197E-03    2.50       6.6  T
   4    -83.3708393 -0.273560E-06  0.572E-04    2.50      22.6  T
   5    -83.3708393 -0.138527E-07  0.260E-04    2.50      49.7  T
     SCC iter.                  ...        0 min,  0.014 sec
     gradient                   ...        0 min,  0.028 sec
 * total energy  :   -82.2927629 Eh     change       -0.2298038E-04 Eh
   gradient norm :     0.0005170 Eh/α   predicted    -0.8747932E-05 ( -61.93%)
   displ. norm   :     0.2357876 α      lambda       -0.2225536E-04
   maximum displ.:     0.1546197 α      in ANC's #1, #2, #4, ...

........................................................................
.............................. CYCLE   34 ..............................
........................................................................
   1    -83.3708777 -0.833709E+02  0.240E-02    2.51       0.0  T
   2    -83.3708778 -0.470413E-07  0.143E-02    2.51       1.0  T
   3    -83.3708770  0.801342E-06  0.341E-03    2.51       3.8  T
   4    -83.3708778 -0.858475E-06  0.544E-04    2.51      23.7  T
   5    -83.3708778 -0.440036E-08  0.302E-04    2.51      42.7  T
     SCC iter.                  ...        0 min,  0.014 sec
     gradient                   ...        0 min,  0.028 sec
 * total energy  :   -82.2927924 Eh     change       -0.2947072E-04 Eh
   gradient norm :     0.0008898 Eh/α   predicted    -0.1140342E-04 ( -61.31%)
   displ. norm   :     0.3029801 α      lambda       -0.2656270E-04
   maximum displ.:     0.2005290 α      in ANC's #1, #2, #4, ...

........................................................................
.............................. CYCLE   35 ..............................
........................................................................
   1    -83.3707387 -0.833707E+02  0.314E-02    2.51       0.0  T
   2    -83.3707388 -0.672498E-07  0.187E-02    2.51       1.0  T
   3    -83.3707375  0.128801E-05  0.433E-03    2.51       3.0  T
   4    -83.3707389 -0.138158E-05  0.701E-04    2.51      18.4  T
   5    -83.3707389 -0.602856E-08  0.398E-04    2.51      32.5  T
   6    -83.3707389 -0.189183E-08  0.156E-04    2.51      82.6  T
     SCC iter.                  ...        0 min,  0.016 sec
     gradient                   ...        0 min,  0.028 sec
 * total energy  :   -82.2928248 Eh     change       -0.3243368E-04 Eh
   gradient norm :     0.0009273 Eh/α   predicted    -0.1382751E-04 ( -57.37%)
   displ. norm   :     0.2676495 α      lambda       -0.1805487E-04
   maximum displ.:     0.1801260 α      in ANC's #1, #2, #6, ...

........................................................................
.............................. CYCLE   36 ..............................
........................................................................
   1    -83.3707685 -0.833708E+02  0.265E-02    2.51       0.0  T
   2    -83.3707686 -0.510178E-07  0.159E-02    2.51       1.0  T
   3    -83.3707680  0.586921E-06  0.304E-03    2.51       4.2  T
   4    -83.3707686 -0.636370E-06  0.596E-04    2.51      21.6  T
   5    -83.3707686 -0.533002E-08  0.323E-04    2.51      40.0  T
     SCC iter.                  ...        0 min,  0.014 sec
     gradient                   ...        0 min,  0.028 sec
 * total energy  :   -82.2928455 Eh     change       -0.2070874E-04 Eh
   gradient norm :     0.0005808 Eh/α   predicted    -0.9319090E-05 ( -55.00%)
   displ. norm   :     0.1774546 α      lambda       -0.9690845E-05
   maximum displ.:     0.1229548 α      in ANC's #1, #2, #6, ...

........................................................................
.............................. CYCLE   37 ..............................
........................................................................
   1    -83.3709420 -0.833709E+02  0.173E-02    2.51       0.0  T
   2    -83.3709421 -0.271785E-07  0.104E-02    2.51       1.2  T
   3    -83.3709420  0.220538E-07  0.843E-04    2.51      15.3  T
   4    -83.3709421 -0.299024E-07  0.396E-04    2.51      32.6  T
     SCC iter.                  ...        0 min,  0.011 sec
     gradient                   ...        0 min,  0.028 sec
 * total energy  :   -82.2928573 Eh     change       -0.1174806E-04 Eh
   gradient norm :     0.0005160 Eh/α   predicted    -0.4916805E-05 ( -58.15%)
   displ. norm   :     0.1242684 α      lambda       -0.6972380E-05
   maximum displ.:     0.0885629 α      in ANC's #1, #2, #5, ...

........................................................................
.............................. CYCLE   38 ..............................
........................................................................
   1    -83.3710540 -0.833711E+02  0.111E-02    2.51       0.0  T
   2    -83.3710540 -0.104655E-07  0.668E-03    2.51       1.9  T
   3    -83.3710538  0.147872E-06  0.149E-03    2.51       8.7  T
   4    -83.3710540 -0.158475E-06  0.270E-04    2.51      47.8  T
   5    -83.3710540 -0.147210E-08  0.148E-04    2.51      87.4  T
     SCC iter.                  ...        0 min,  0.014 sec
     gradient                   ...        0 min,  0.028 sec
 * total energy  :   -82.2928668 Eh     change       -0.9519368E-05 Eh
   gradient norm :     0.0010038 Eh/α   predicted    -0.3512729E-05 ( -63.10%)
   displ. norm   :     0.1431105 α      lambda       -0.9453269E-05
   maximum displ.:     0.1021777 α      in ANC's #1, #2, #5, ...

........................................................................
.............................. CYCLE   39 ..............................
........................................................................
   1    -83.3710402 -0.833710E+02  0.133E-02    2.51       0.0  T
   2    -83.3710402 -0.588309E-08  0.800E-03    2.51       1.6  T
   3    -83.3710393  0.864557E-06  0.357E-03    2.51       3.6  T
   4    -83.3710402 -0.916674E-06  0.363E-04    2.51      35.5  T
   5    -83.3710402 -0.334786E-08  0.187E-04    2.51      68.9  T
     SCC iter.                  ...        0 min,  0.014 sec
     gradient                   ...        0 min,  0.028 sec
 * total energy  :   -82.2928796 Eh     change       -0.1285774E-04 Eh
   gradient norm :     0.0004115 Eh/α   predicted    -0.4770524E-05 ( -62.90%)
   displ. norm   :     0.2161929 α      lambda       -0.1390718E-04
   maximum displ.:     0.1537121 α      in ANC's #1, #2, #5, ...

........................................................................
.............................. CYCLE   40 ..............................
........................................................................
   1    -83.3708994 -0.833709E+02  0.206E-02    2.51       0.0  T
   2    -83.3708994  0.407940E-07  0.125E-02    2.51       1.0  T
   3    -83.3708956  0.374370E-05  0.757E-03    2.51       1.7  T
   4    -83.3708996 -0.398654E-05  0.562E-04    2.51      23.0  T
   5    -83.3708996 -0.892726E-08  0.297E-04    2.51      43.4  T
   6    -83.3708996 -0.186958E-09  0.109E-04    2.51     118.6  T
     SCC iter.                  ...        0 min,  0.016 sec
     gradient                   ...        0 min,  0.028 sec
 * total energy  :   -82.2928973 Eh     change       -0.1765190E-04 Eh
   gradient norm :     0.0009908 Eh/α   predicted    -0.7102258E-05 ( -59.76%)
   displ. norm   :     0.2543386 α      lambda       -0.1321117E-04
   maximum displ.:     0.1809145 α      in ANC's #1, #2, #4, ...

........................................................................
.............................. CYCLE   41 ..............................
........................................................................
   1    -83.3706503 -0.833707E+02  0.243E-02    2.51       0.0  T
   2    -83.3706503  0.263223E-07  0.147E-02    2.51       1.0  T
   3    -83.3706457  0.456052E-05  0.829E-03    2.51       1.6  T
   4    -83.3706506 -0.484832E-05  0.684E-04    2.51      18.9  T
   5    -83.3706506 -0.136058E-07  0.353E-04    2.51      36.6  T
   6    -83.3706506  0.833467E-10  0.138E-04    2.51      93.5  T
     SCC iter.                  ...        0 min,  0.016 sec
     gradient                   ...        0 min,  0.028 sec
 * total energy  :   -82.2929132 Eh     change       -0.1593354E-04 Eh
   gradient norm :     0.0005725 Eh/α   predicted    -0.6796090E-05 ( -57.35%)
   displ. norm   :     0.2396203 α      lambda       -0.9835954E-05
   maximum displ.:     0.1708208 α      in ANC's #1, #2, #4, ...

........................................................................
.............................. CYCLE   42 ..............................
........................................................................
   1    -83.3705565 -0.833706E+02  0.226E-02    2.51       0.0  T
   2    -83.3705564  0.399873E-07  0.137E-02    2.51       1.0  T
   3    -83.3705524  0.404707E-05  0.789E-03    2.51       1.6  T
   4    -83.3705567 -0.430371E-05  0.561E-04    2.51      23.0  T
   5    -83.3705567 -0.603740E-08  0.321E-04    2.51      40.2  T
   6    -83.3705567 -0.713499E-09  0.120E-04    2.51     107.6  T
     SCC iter.                  ...        0 min,  0.017 sec
     gradient                   ...        0 min,  0.028 sec
 * total energy  :   -82.2929252 Eh     change       -0.1195705E-04 Eh
   gradient norm :     0.0007673 Eh/α   predicted    -0.5044137E-05 ( -57.81%)
   displ. norm   :     0.2307075 α      lambda       -0.8631147E-05
   maximum displ.:     0.1644750 α      in ANC's #1, #2, #4, ...
 * RMSD in coord.:     0.4615713 α      energy gain  -0.4506623E-03 Eh

generating ANC from model Hessian ...
Using Lindh-Hessian (1995)
 Shifting diagonal of input Hessian by    9.9099109027711591E-003
 Lowest  eigenvalues of input Hessian
    0.000000    0.000000    0.000000    0.000000    0.000000    0.000000
    0.010000    0.010041    0.010080    0.010124    0.010806    0.011734
    0.012294    0.013148    0.013222    0.013379    0.014616    0.015092
 Highest eigenvalues
    1.724550    1.889532    1.906640    1.914938    8.616944    8.686882


........................................................................
.............................. CYCLE   43 ..............................
........................................................................
   1    -83.3704741 -0.833705E+02  0.217E-02    2.51       0.0  T
   2    -83.3704740  0.838281E-08  0.131E-02    2.51       1.0  T
   3    -83.3704710  0.304087E-05  0.680E-03    2.51       1.9  T
   4    -83.3704742 -0.322973E-05  0.570E-04    2.51      22.6  T
   5    -83.3704742 -0.726683E-08  0.313E-04    2.51      41.2  T
   6    -83.3704742 -0.521368E-09  0.132E-04    2.51      98.2  T
     SCC iter.                  ...        0 min,  0.017 sec
     gradient                   ...        0 min,  0.028 sec
 * total energy  :   -82.2929358 Eh     change       -0.1064804E-04 Eh
   gradient norm :     0.0004452 Eh/α   predicted     0.0000000E+00 (-100.00%)
   displ. norm   :     0.0195162 α      lambda       -0.2492899E-06
   maximum displ.:     0.0089564 α      in ANC's #4, #7, #22, ...

........................................................................
.............................. CYCLE   44 ..............................
........................................................................
   1    -83.3708588 -0.833709E+02  0.324E-03    2.51       0.0  T
   2    -83.3708589 -0.846751E-08  0.192E-03    2.51       6.7  T
   3    -83.3708588  0.109715E-07  0.433E-04    2.51      29.8  T
   4    -83.3708588 -0.104954E-07  0.202E-04    2.51      64.1  T
     SCC iter.                  ...        0 min,  0.011 sec
     gradient                   ...        0 min,  0.028 sec
 * total energy  :   -82.2929395 Eh     change       -0.3631338E-05 Eh
   gradient norm :     0.0003531 Eh/α   predicted    -0.1432293E-05 ( -60.56%)
   displ. norm   :     0.0775682 α      lambda       -0.8416748E-05
   maximum displ.:     0.0352924 α      in ANC's #4, #7, #5, ...

   *** GEOMETRY OPTIMIZATION CONVERGED AFTER 44 ITERATIONS ***

------------------------------------------------------------------------
 total energy gain   :        -0.1789247 Eh     -112.2769 kcal/mol
 total RMSD          :         0.4814890 a0        0.2548 Å
 total power (kW/mol):       -10.6765161 (step) -200.4417 (real)
------------------------------------------------------------------------

 ANCopt (total)                0 d,  0 h,  0 min,  2.344 sec
 optimizer setup                ...        0 min,  0.000 sec (  0.004%)
 model hessian                  ...        0 min,  0.095 sec (  4.073%)
 ANC generation                 ...        0 min,  0.008 sec (  0.342%)
 coordinate transformation      ...        0 min,  0.001 sec (  0.027%)
 single point calculation       ...        0 min,  2.223 sec ( 94.872%)
 optimization log               ...        0 min,  0.009 sec (  0.384%)
 hessian update                 ...        0 min,  0.001 sec (  0.043%)
 rational function              ...        0 min,  0.004 sec (  0.178%)

================
 final structure:
================
60
 xtb: 6.5.0 (homebrew)
C            3.47455848476422      -37.74582484227857       15.92981621821409
C            3.72826266405894      -38.18509005504312       17.37016639780912
O            3.24450004584678      -37.18614242728690       18.26591730568033
C            2.92775795322557      -39.46290319757072       17.65309539176813
C            5.24368200222197      -38.31506428652107       17.76639461061294
C            5.78403139998015      -39.74312487487116       17.78648943040381
C            6.16312782586429      -37.44330274780258       16.90112543616533
O            5.28104187751416      -37.77293312080350       19.08543141674163
B            4.13791007120872      -37.04845917830025       19.29647146717229
C            3.88148687021040      -36.18683982979768       20.55938445678824
C            4.91723260383703      -35.96510482526318       21.44990287092774
C            4.95478606024476      -35.12417878247692       22.54636671861837
H            5.90444717329605      -34.99538484903031       23.04610885604444
C            3.82544906268107      -34.29500932065316       23.08807305418100
H            4.05941453456023      -33.91988515526678       24.08384377110196
C            2.45130025658645      -34.89224183683829       23.10933960087902
B            1.69539328475905      -34.89671905573825       24.47448459852289
O            2.22400032453828      -34.39173208858334       25.63137309036543
C            1.35944953775590      -34.72640217358412       26.71580701595433
C            1.25231713605717      -33.53866636901600       27.66950356320827
C            2.00874581459339      -35.90514570500270       27.45221204090693
C            0.02002682100400      -35.12021575133471       25.99320540472837
C           -0.97203384109292      -33.95399127463569       25.89923832067739
C           -0.69413610254015      -36.33678902074342       26.57777647847917
O            0.44478760324638      -35.41342004894292       24.66213677750292
C            1.90336575908404      -35.43224064611692       22.02117051238276
C            2.52660552368153      -35.51249484805479       20.67162182201231
H            1.83662428660619      -35.99198281801047       19.97693107762891
C            3.05418849548702      -34.24824513683079       20.06420363327140
C            3.79632291740096      -33.29277932860494       20.70643145555301
C            4.18634249353422      -33.28916586703748       22.03808159390686
H            4.87134131821870      -32.51537815426185       22.35487349309352
H            2.40171520863490      -37.70061336121659       15.75937532914133
H            3.91087778934837      -38.46050418102210       15.23721575878580
H            3.88669431186239      -36.75999371041500       15.74048022656370
H            1.87116469310620      -39.24756950058440       17.51064158122168
H            3.07107241962950      -39.77394626924666       18.68487949304545
H            3.21837271616370      -40.26566482920607       16.98219497093055
H            5.67730655602712      -40.19950280724078       16.80607841011962
H            5.26866744710174      -40.34659646533470       18.52651280296726
H            6.83859035716351      -39.71665372419214       18.04945970852973
H            6.22404941463034      -37.82307741959275       15.88566497633497
H            7.15741204889380      -37.44848358944716       17.34199508142749
H            5.80699283486313      -36.41618514978979       16.89063440935287
H            5.84698404209914      -36.46274138920086       21.19874121263510
H            2.22170756592711      -33.36881487580305       28.13154307913016
H            0.52376775549811      -33.74693269420709       28.44834037864147
H            0.96920698786714      -32.63470589139094       27.14014237196007
H            3.00107489208526      -35.60317443004614       27.77952906385330
H            2.12116224782240      -36.75141024764097       26.77917442353542
H            1.42412594715615      -36.19769501561822       28.31914151299502
H           -1.37361168589554      -33.70021141228050       26.87569556401961
H           -1.78956116806090      -34.24878508228336       25.24550974227074
H           -0.48966179219288      -33.08403859595714       25.46100319286584
H           -0.95450221377494      -36.15667195512655       27.61732482625491
H           -0.07670718911433      -37.22621396860044       26.50663512494253
H           -1.60539754239691      -36.51392834905978       26.01202650607300
H            0.91374451605290      -35.85950518269589       22.11031789982882
H            2.91867326639063      -34.16057158772834       18.99638278773465
H            4.18744831467165      -32.48596069877267       20.09620168354856

 Bond Distances (Angstroems)
 ---------------------------
C1-C2=1.5271         C1-H33=1.0872        C1-H34=1.0867        C1-H35=1.0852        C2-C1=1.5271         C2-O3=1.4263         
C2-C4=1.5342         C2-C5=1.5717         O3-C2=1.4263         O3-B9=1.3708         C4-C2=1.5342         C4-H36=1.0877        
C4-H37=1.0871        C4-H38=1.0858        C5-C2=1.5717         C5-C6=1.5270         C5-C7=1.5343         C5-O8=1.4266         
C6-C5=1.5270         C6-H39=1.0867        C6-H40=1.0851        C6-H41=1.0872        C7-C5=1.5343         C7-H42=1.0859        
C7-H43=1.0877        C7-H44=1.0872        O8-C5=1.4266         O8-B9=1.3697         B9-O3=1.3708         B9-O8=1.3697         
B9-C10=1.5502        C10-B9=1.5502        C10-C11=1.3838       C10-C27=1.5176       C11-C10=1.3838       C11-C12=1.3823       
C11-H45=1.0840       C12-C11=1.3823       C12-H13=1.0808       C12-C14=1.5021       H13-C12=1.0808       C14-C12=1.5021       
C14-H15=1.0895       C14-C16=1.4985       C14-C31=1.4981       H15-C14=1.0895       C16-C14=1.4985       C16-B17=1.5605       
C16-C26=1.3326       B17-C16=1.5605       B17-O18=1.3685       B17-O25=1.3661       O18-B17=1.3685       O18-C19=1.4267       
C19-O18=1.4267       C19-C20=1.5270       C19-C21=1.5341       C19-C22=1.5720       C20-C19=1.5270       C20-H46=1.0872       
C20-H47=1.0866       C20-H48=1.0851       C21-C19=1.5341       C21-H49=1.0877       C21-H50=1.0871       C21-H51=1.0858       
C22-C19=1.5720       C22-C23=1.5340       C22-C24=1.5270       C22-O25=1.4276       C23-C22=1.5340       C23-H52=1.0859       
C23-H53=1.0875       C23-H54=1.0870       C24-C22=1.5270       C24-H55=1.0867       C24-H56=1.0851       C24-H57=1.0871       
O25-B17=1.3661       O25-C22=1.4276       C26-C16=1.3326       C26-C27=1.4887       C26-H58=1.0816       C27-C10=1.5176       
C27-C26=1.4887       C27-H28=1.0902       C27-C29=1.4985       H28-C27=1.0902       C29-C27=1.4985       C29-C30=1.3697       
C29-H59=1.0800       C30-C29=1.3697       C30-C31=1.3876       C30-H60=1.0846       C31-C14=1.4981       C31-C30=1.3876       
C31-H32=1.0809       H32-C31=1.0809       H33-C1=1.0872        H34-C1=1.0867        H35-C1=1.0852        H36-C4=1.0877        
H37-C4=1.0871        H38-C4=1.0858        H39-C6=1.0867        H40-C6=1.0851        H41-C6=1.0872        H42-C7=1.0859        
H43-C7=1.0877        H44-C7=1.0872        H45-C11=1.0840       H46-C20=1.0872       H47-C20=1.0866       H48-C20=1.0851       
H49-C21=1.0877       H50-C21=1.0871       H51-C21=1.0858       H52-C23=1.0859       H53-C23=1.0875       H54-C23=1.0870       
H55-C24=1.0867       H56-C24=1.0851       H57-C24=1.0871       H58-C26=1.0816       H59-C29=1.0800       H60-C30=1.0846       
 C  H  Rav=1.0859 sigma=0.0023  Rmin=1.0800  Rmax=1.0902    32
 C  B  Rav=1.5553 sigma=0.0051  Rmin=1.5502  Rmax=1.5605     2
 C  C  Rav=1.4880 sigma=0.0691  Rmin=1.3326  Rmax=1.5720    21
 O  B  Rav=1.3688 sigma=0.0018  Rmin=1.3661  Rmax=1.3708     4
 O  C  Rav=1.4268 sigma=0.0005  Rmin=1.4263  Rmax=1.4276     4

 selected bond angles (degree)
 --------------------
H33-C1-C2=108.89               H34-C1-C2=110.20               H34-C1-H33=108.88              H35-C1-C2=111.27               
H35-C1-H33=108.04              H35-C1-H34=109.50              O3-C2-C1=109.55                C4-C2-C1=109.08                
C4-C2-O3=106.89                C5-C2-C1=114.95                C5-C2-O3=103.10                C5-C2-C4=112.81                
B9-O3-C2=108.75                H36-C4-C2=108.53               H37-C4-C2=110.15               H37-C4-H36=108.00              
H38-C4-C2=111.23               H38-C4-H36=108.99              H38-C4-H37=109.85              C6-C5-C2=114.95                
C7-C5-C2=112.87                C7-C5-C6=109.07                O8-C5-C2=103.12                O8-C5-C6=109.51                
O8-C5-C7=106.85                H39-C6-C5=110.25               H40-C6-C5=111.16               H40-C6-H39=109.58              
H41-C6-C5=108.88               H41-C6-H39=108.89              H41-C6-H40=108.02              H42-C7-C5=111.24               
H43-C7-C5=108.45               H43-C7-H42=109.03              H44-C7-C5=110.24               H44-C7-H42=109.86              
H44-C7-H43=107.93              B9-O8-C5=108.76                O8-B9-O3=112.02                C10-B9-O3=124.09               
C10-B9-O8=123.89               C11-C10-B9=119.31              C27-C10-B9=117.06              C27-C10-C11=123.33             

 selected dihedral angles (degree)
 ---------------------------------
O3-C2-C1-H33=294.78           O3-C2-C1-H34=175.41           O3-C2-C1-H35= 53.75           C4-C2-C1-H33= 51.46           
C4-C2-C1-H34=292.09           C4-C2-C1-H35=170.43           C5-C2-C1-H33=179.29           C5-C2-C1-H34= 59.92           
C5-C2-C1-H35=298.26           B9-O3-C2-C1=220.26            B9-O3-C2-C4=102.21            B9-O3-C2-C5=343.09            
H36-C4-C2-C1=299.83           H36-C4-C2-O3= 58.19           H36-C4-C2-C5=170.81           H37-C4-C2-C1=181.78           
H37-C4-C2-O3=300.14           H37-C4-C2-C5= 52.76           H38-C4-C2-C1= 59.73           H38-C4-C2-O3=178.09           
H38-C4-C2-C5=290.71           C6-C5-C2-C1=258.61            C6-C5-C2-O3=139.47            C6-C5-C2-C4= 24.54            
C7-C5-C2-C1= 24.58            C7-C5-C2-O3=265.44            C7-C5-C2-C4=150.51            O8-C5-C2-C1=139.50            
O8-C5-C2-O3= 20.35            O8-C5-C2-C4=265.42            H39-C6-C5-C2= 59.37           H39-C6-C5-C7=291.46           
H39-C6-C5-O8=174.86           H40-C6-C5-C2=297.64           H40-C6-C5-C7=169.74           H40-C6-C5-O8= 53.13           
H41-C6-C5-C2=178.77           H41-C6-C5-C7= 50.86           H41-C6-C5-O8=294.26           H42-C7-C5-C2=289.99           
H42-C7-C5-C6= 59.05           H42-C7-C5-O8=177.34           H43-C7-C5-C2=170.08           H43-C7-C5-C6=299.15           
H43-C7-C5-O8= 57.44           H44-C7-C5-C2= 52.12           H44-C7-C5-C6=181.18           H44-C7-C5-O8=299.47           
B9-O8-C5-C2=343.14            B9-O8-C5-C6=220.31            B9-O8-C5-C7=102.32            O8-B9-O3-C2=  7.26            
C10-B9-O3-C2=187.85           O3-B9-O8-C5=  7.17            C10-B9-O8-C5=186.59           C11-C10-B9-O3=188.98          
C11-C10-B9-O8=  9.63          C27-C10-B9-O3=  2.86          C27-C10-B9-O8=183.51          
           -------------------------------------------------
          |                Final Singlepoint                |
           -------------------------------------------------

          ...................................................
          :                      SETUP                      :
          :.................................................:
          :  # basis functions                 144          :
          :  # atomic orbitals                 144          :
          :  # shells                           88          :
          :  # electrons                       150          :
          :  max. iterations                   250          :
          :  Hamiltonian                  GFN2-xTB          :
          :  restarted?                      false          :
          :  GBSA solvation                  false          :
          :  PC potential                    false          :
          :  electronic temp.          300.0000000     K    :
          :  accuracy                    1.0000000          :
          :  -> integral cutoff          0.2500000E+02      :
          :  -> integral neglect         0.1000000E-07      :
          :  -> SCF convergence          0.1000000E-05 Eh   :
          :  -> wf. convergence          0.1000000E-03 e    :
          :  Broyden damping             0.4000000          :
          ...................................................

 iter      E             dE          RMSdq      gap      omega  full diag
   1    -83.3708589 -0.833709E+02  0.655E-05    2.51       0.0  T
   2    -83.3708589  0.451053E-10  0.593E-05    2.51     217.6  T
   3    -83.3708589 -0.167816E-09  0.246E-05    2.51     525.7  T

   *** convergence criteria satisfied after 3 iterations ***

         #    Occupation            Energy/Eh            Energy/eV
      -------------------------------------------------------------
         1        2.0000           -0.6873325             -18.7033
       ...           ...                  ...                  ...
        69        2.0000           -0.4034585             -10.9787
        70        2.0000           -0.3970027             -10.8030
        71        2.0000           -0.3960438             -10.7769
        72        2.0000           -0.3925554             -10.6820
        73        2.0000           -0.3897553             -10.6058
        74        2.0000           -0.3574170              -9.7258
        75        2.0000           -0.3389231              -9.2226 (HOMO)
        76                         -0.2466261              -6.7110 (LUMO)
        77                         -0.2187843              -5.9534
        78                         -0.1883378              -5.1249
        79                         -0.1318872              -3.5888
        80                         -0.0973377              -2.6487
       ...                                ...                  ...
       144                          0.6858869              18.6639
      -------------------------------------------------------------
                  HL-Gap            0.0922970 Eh            2.5115 eV
             Fermi-level           -0.2927746 Eh           -7.9668 eV

 SCC (total)                   0 d,  0 h,  0 min,  0.043 sec
 SCC setup                      ...        0 min,  0.000 sec (  0.523%)
 Dispersion                     ...        0 min,  0.000 sec (  0.888%)
 classical contributions        ...        0 min,  0.000 sec (  0.401%)
 integral evaluation            ...        0 min,  0.006 sec ( 13.879%)
 iterations                     ...        0 min,  0.009 sec ( 20.058%)
 molecular gradient             ...        0 min,  0.028 sec ( 63.466%)
 printout                       ...        0 min,  0.000 sec (  0.772%)

         :::::::::::::::::::::::::::::::::::::::::::::::::::::
         ::                     SUMMARY                     ::
         :::::::::::::::::::::::::::::::::::::::::::::::::::::
         :: total energy             -82.292939460055 Eh    ::
         :: gradient norm              0.000352323224 Eh/a0 ::
         :: HOMO-LUMO gap              2.511529369739 eV    ::
         ::.................................................::
         :: SCC energy               -83.370858852401 Eh    ::
         :: -> isotropic ES            0.147667508803 Eh    ::
         :: -> anisotropic ES          0.012159714030 Eh    ::
         :: -> anisotropic XC          0.027134338802 Eh    ::
         :: -> dispersion             -0.062590482789 Eh    ::
         :: repulsion energy           1.077162150434 Eh    ::
         :: add. restraining           0.000054714512 Eh    ::
         :: total charge              -0.000000000000 e     ::
         :::::::::::::::::::::::::::::::::::::::::::::::::::::

           -------------------------------------------------
          |                Property Printout                |
           -------------------------------------------------

    * Orbital Energies and Occupations

         #    Occupation            Energy/Eh            Energy/eV
      -------------------------------------------------------------
         1        2.0000           -0.6873325             -18.7033
       ...           ...                  ...                  ...
        63        2.0000           -0.4347222             -11.8294
        64        2.0000           -0.4310886             -11.7305
        65        2.0000           -0.4255093             -11.5787
        66        2.0000           -0.4207119             -11.4482
        67        2.0000           -0.4191252             -11.4050
        68        2.0000           -0.4150048             -11.2929
        69        2.0000           -0.4034585             -10.9787
        70        2.0000           -0.3970027             -10.8030
        71        2.0000           -0.3960438             -10.7769
        72        2.0000           -0.3925554             -10.6820
        73        2.0000           -0.3897553             -10.6058
        74        2.0000           -0.3574170              -9.7258
        75        2.0000           -0.3389231              -9.2226 (HOMO)
        76                         -0.2466261              -6.7110 (LUMO)
        77                         -0.2187843              -5.9534
        78                         -0.1883378              -5.1249
        79                         -0.1318872              -3.5888
        80                         -0.0973377              -2.6487
        81                         -0.0773389              -2.1045
        82                          0.0091512               0.2490
        83                          0.0122309               0.3328
        84                          0.0289529               0.7878
        85                          0.0300007               0.8164
        86                          0.0571278               1.5545
       ...                                ...                  ...
       144                          0.6858869              18.6639
      -------------------------------------------------------------
                  HL-Gap            0.0922970 Eh            2.5115 eV
             Fermi-level           -0.2927746 Eh           -7.9668 eV

     #   Z          covCN         q      C6AA      α(0)
     1   6 C        3.755    -0.117    22.787     6.807
     2   6 C        3.859     0.130    18.444     6.108
     3   8 O        1.638    -0.376    20.408     6.098
     4   6 C        3.755    -0.116    22.772     6.804
     5   6 C        3.859     0.130    18.444     6.108
     6   6 C        3.755    -0.117    22.798     6.808
     7   6 C        3.755    -0.115    22.761     6.803
     8   8 O        1.638    -0.375    20.386     6.095
     9   5 B        2.659     0.432    15.566     6.643
    10   6 C        3.050    -0.080    29.949     8.975
    11   6 C        2.892    -0.041    29.022     8.832
    12   6 C        3.269    -0.024    27.282     8.424
    13   1 H        0.926     0.029     2.601     2.522
    14   6 C        3.864    -0.011    20.723     6.474
    15   1 H        0.925     0.048     2.348     2.396
    16   6 C        2.864    -0.083    30.079     8.990
    17   5 B        2.661     0.431    15.565     6.641
    18   8 O        1.638    -0.372    20.323     6.085
    19   6 C        3.860     0.129    18.456     6.110
    20   6 C        3.755    -0.117    22.798     6.808
    21   6 C        3.755    -0.116    22.780     6.805
    22   6 C        3.860     0.129    18.457     6.110
    23   6 C        3.755    -0.116    22.786     6.806
    24   6 C        3.755    -0.118    22.808     6.810
    25   8 O        1.638    -0.369    20.276     6.078
    26   6 C        2.897    -0.025    28.637     8.774
    27   6 C        3.862    -0.011    20.738     6.476
    28   1 H        0.924     0.046     2.368     2.406
    29   6 C        3.078    -0.025    28.539     8.758
    30   6 C        2.888    -0.044    29.088     8.842
    31   6 C        3.271    -0.020    27.159     8.402
    32   1 H        0.926     0.030     2.589     2.516
    33   1 H        0.925     0.054     2.273     2.358
    34   1 H        0.925     0.039     2.462     2.454
    35   1 H        0.925     0.051     2.309     2.377
    36   1 H        0.925     0.052     2.301     2.372
    37   1 H        0.925     0.044     2.403     2.424
    38   1 H        0.925     0.042     2.425     2.435
    39   1 H        0.925     0.039     2.459     2.452
    40   1 H        0.925     0.052     2.295     2.369
    41   1 H        0.925     0.054     2.273     2.358
    42   1 H        0.925     0.042     2.422     2.434
    43   1 H        0.925     0.051     2.302     2.373
    44   1 H        0.925     0.042     2.417     2.431
    45   1 H        0.925     0.034     2.530     2.487
    46   1 H        0.925     0.054     2.271     2.357
    47   1 H        0.925     0.040     2.452     2.449
    48   1 H        0.925     0.052     2.295     2.369
    49   1 H        0.925     0.052     2.296     2.370
    50   1 H        0.925     0.044     2.398     2.422
    51   1 H        0.925     0.042     2.417     2.431
    52   1 H        0.925     0.043     2.413     2.429
    53   1 H        0.925     0.053     2.287     2.365
    54   1 H        0.925     0.044     2.398     2.421
    55   1 H        0.925     0.040     2.450     2.448
    56   1 H        0.925     0.052     2.293     2.368
    57   1 H        0.925     0.055     2.261     2.352
    58   1 H        0.925     0.038     2.480     2.463
    59   1 H        0.926     0.031     2.569     2.506
    60   1 H        0.925     0.023     2.682     2.561

 Mol. C6AA /au·bohr⁶  :      33262.458597
 Mol. C8AA /au·bohr⁸  :     771426.809382
 Mol. α(0) /au        :        276.948670


Wiberg/Mayer (AO) data.
largest (>0.10) Wiberg bond orders for each atom

 ---------------------------------------------------------------------------
     #   Z sym  total        # sym  WBO       # sym  WBO       # sym  WBO
 ---------------------------------------------------------------------------
     1   6 C    3.994 --     2 C    0.997    34 H    0.985    33 H    0.983
                            35 H    0.982
     2   6 C    3.944 --     1 C    0.997     4 C    0.990     3 O    0.954
                             5 C    0.937
     3   8 O    2.221 --     9 B    1.116     2 C    0.954
     4   6 C    3.994 --     2 C    0.990    38 H    0.984    37 H    0.984
                            36 H    0.983
     5   6 C    3.943 --     6 C    0.996     7 C    0.990     8 O    0.954
                             2 C    0.937
     6   6 C    3.994 --     5 C    0.996    39 H    0.985    41 H    0.983
                            40 H    0.982
     7   6 C    3.995 --     5 C    0.990    42 H    0.985    44 H    0.984
                            43 H    0.983
     8   8 O    2.223 --     9 B    1.119     5 C    0.954
     9   5 B    3.384 --     8 O    1.119     3 O    1.116    10 C    1.021
    10   6 C    3.946 --    11 C    1.464     9 B    1.021    27 C    0.941
                            29 C    0.259    31 C    0.135
    11   6 C    3.991 --    10 C    1.464    12 C    1.438    45 H    0.961
    12   6 C    3.953 --    11 C    1.438    13 H    0.973    14 C    0.955
                            31 C    0.376    29 C    0.131
    13   1 H    0.999 --    12 C    0.973
    14   6 C    3.986 --    16 C    1.002    15 H    0.968    31 C    0.967
                            12 C    0.955
    15   1 H    0.997 --    14 C    0.968
    16   6 C    3.977 --    26 C    1.850    14 C    1.002    17 B    0.999
    17   5 B    3.376 --    25 O    1.134    18 O    1.127    16 C    0.999
    18   8 O    2.233 --    17 B    1.127    19 C    0.953
    19   6 C    3.943 --    20 C    0.997    21 C    0.991    18 O    0.953
                            22 C    0.936
    20   6 C    3.994 --    19 C    0.997    47 H    0.984    46 H    0.983
                            48 H    0.982
    21   6 C    3.994 --    19 C    0.991    51 H    0.984    50 H    0.984
                            49 H    0.983
    22   6 C    3.942 --    24 C    0.996    23 C    0.991    25 O    0.953
                            19 C    0.936
    23   6 C    3.995 --    22 C    0.991    52 H    0.984    54 H    0.984
                            53 H    0.983
    24   6 C    3.994 --    22 C    0.996    55 H    0.985    57 H    0.983
                            56 H    0.982
    25   8 O    2.237 --    17 B    1.134    22 C    0.953
    26   6 C    3.987 --    16 C    1.850    27 C    1.016    58 H    0.967
    27   6 C    3.991 --    26 C    1.016    29 C    0.973    28 H    0.969
                            10 C    0.941
    28   1 H    0.998 --    27 C    0.969
    29   6 C    3.961 --    30 C    1.524    27 C    0.973    59 H    0.972
                            10 C    0.259    12 C    0.131
    30   6 C    3.990 --    29 C    1.524    31 C    1.406    60 H    0.964
    31   6 C    3.941 --    30 C    1.406    32 H    0.974    14 C    0.967
                            12 C    0.376    10 C    0.135
    32   1 H    0.999 --    31 C    0.974
    33   1 H    0.997 --     1 C    0.983
    34   1 H    0.998 --     1 C    0.985
    35   1 H    0.997 --     1 C    0.982
    36   1 H    0.997 --     4 C    0.983
    37   1 H    0.998 --     4 C    0.984
    38   1 H    0.998 --     4 C    0.984
    39   1 H    0.998 --     6 C    0.985
    40   1 H    0.997 --     6 C    0.982
    41   1 H    0.997 --     6 C    0.983
    42   1 H    0.998 --     7 C    0.985
    43   1 H    0.997 --     7 C    0.983
    44   1 H    0.998 --     7 C    0.984
    45   1 H    0.999 --    11 C    0.961
    46   1 H    0.997 --    20 C    0.983
    47   1 H    0.998 --    20 C    0.984
    48   1 H    0.997 --    20 C    0.982
    49   1 H    0.997 --    21 C    0.983
    50   1 H    0.998 --    21 C    0.984
    51   1 H    0.998 --    21 C    0.984
    52   1 H    0.998 --    23 C    0.984
    53   1 H    0.997 --    23 C    0.983
    54   1 H    0.998 --    23 C    0.984
    55   1 H    0.998 --    24 C    0.985
    56   1 H    0.997 --    24 C    0.982
    57   1 H    0.997 --    24 C    0.983
    58   1 H    0.998 --    26 C    0.967
    59   1 H    0.999 --    29 C    0.972
    60   1 H    0.999 --    30 C    0.964
 ---------------------------------------------------------------------------

Topologies differ in total number of bonds
Writing topology from bond orders to xtbtopo.mol

molecular dipole:
                 x           y           z       tot (Debye)
 q only:       -0.258      -0.297       0.177
   full:       -0.082      -0.342       0.053       0.904
molecular quadrupole (traceless):
                xx          xy          yy          xz          yz          zz
 q only:      -39.405      21.442      27.296     -26.632     -26.848      12.109
  q+dip:      -35.370       5.728      34.572     -17.057     -14.883       0.798
   full:      -36.147       4.440      36.400     -18.383     -16.276      -0.252

           -------------------------------------------------
          |                Geometry Summary                 |
           -------------------------------------------------

      molecular mass/u    :      382.1099696
   center of mass at/Å    :        2.9387983     -35.9477191      21.8403385
  moments of inertia/u·Å² :        0.1198041E+04   0.6863129E+04   0.7156066E+04
rotational constants/cm⁻¹ :        0.1407100E-01   0.2456260E-02   0.2355712E-02

 * 57 selected distances

     #   Z          #   Z                                           value/Å
     1   6 C        2   6 C                                       1.5270654
     2   6 C        3   8 O                                       1.4262863
     2   6 C        4   6 C                                       1.5341654
     5   6 C        6   6 C                                       1.5270032
     5   6 C        7   6 C                                       1.5342881
     5   6 C        8   8 O                                       1.4265905
     3   8 O        9   5 B                                       1.3708320
     8   8 O        9   5 B                                       1.3697266
     9   5 B       10   6 C                                       1.5501904
    10   6 C       11   6 C                                       1.3838205
    11   6 C       12   6 C                                       1.3823170
    12   6 C       13   1 H                                       1.0808268
    12   6 C       14   6 C                                       1.5021219
    14   6 C       15   1 H                                       1.0895033
    16   6 C       17   5 B                                       1.5604604 (max)
    17   5 B       18   8 O                                       1.3685133
    18   8 O       19   6 C                                       1.4266918
    19   6 C       20   6 C                                       1.5270007
    19   6 C       21   6 C                                       1.5340517
    22   6 C       23   6 C                                       1.5339798
    22   6 C       24   6 C                                       1.5270242
    17   5 B       25   8 O                                       1.3660923
    22   6 C       25   8 O                                       1.4276325
    16   6 C       26   6 C                                       1.3326452
    27   6 C       28   1 H                                       1.0902194
    29   6 C       30   6 C                                       1.3697209
    14   6 C       31   6 C                                       1.4981481
    30   6 C       31   6 C                                       1.3875953
    31   6 C       32   1 H                                       1.0808923
     1   6 C       33   1 H                                       1.0872383
     1   6 C       34   1 H                                       1.0866631
     1   6 C       35   1 H                                       1.0851577
     4   6 C       36   1 H                                       1.0876816
     4   6 C       37   1 H                                       1.0871364
     4   6 C       38   1 H                                       1.0858134
     6   6 C       39   1 H                                       1.0866816
     6   6 C       40   1 H                                       1.0850865
     6   6 C       41   1 H                                       1.0871747
     7   6 C       42   1 H                                       1.0858639
     7   6 C       43   1 H                                       1.0876554
     7   6 C       44   1 H                                       1.0871582
    11   6 C       45   1 H                                       1.0840490
    20   6 C       46   1 H                                       1.0872203
    20   6 C       47   1 H                                       1.0866214
    20   6 C       48   1 H                                       1.0851357
    21   6 C       49   1 H                                       1.0876766
    21   6 C       50   1 H                                       1.0870975
    21   6 C       51   1 H                                       1.0857865
    23   6 C       52   1 H                                       1.0858812
    23   6 C       53   1 H                                       1.0874813
    23   6 C       54   1 H                                       1.0869916
    24   6 C       55   1 H                                       1.0866893
    24   6 C       56   1 H                                       1.0850606
    24   6 C       57   1 H                                       1.0871288
    26   6 C       58   1 H                                       1.0815973
    29   6 C       59   1 H                                       1.0799503 (min)
    30   6 C       60   1 H                                       1.0845810

 * 5 distinct bonds (by element types)

   Z      Z             #   av. dist./Å        max./Å        min./Å
   1 H    6 C          32     1.0859282     1.0902194     1.0799503
   5 B    6 C           2     1.5553254     1.5604604     1.5501904
   6 C    6 C          15     1.4733965     1.5342881     1.3326452
   5 B    8 O           4     1.3687911     1.3708320     1.3660923
   6 C    8 O           4     1.4268003     1.4276325     1.4262863


optimized geometry written to: xtbopt.xyz


           -------------------------------------------------
          | TOTAL ENERGY              -82.292939460055 Eh   |
          | GRADIENT NORM               0.000352323224 Eh/α |
          | HOMO-LUMO GAP               2.511529369739 eV   |
           -------------------------------------------------

------------------------------------------------------------------------
 * finished run on 2022/07/09 at 18:33:18.295     
------------------------------------------------------------------------
 total:
 * wall-time:     0 d,  0 h,  0 min,  2.472 sec
 *  cpu-time:     0 d,  0 h,  0 min,  2.469 sec
 * ratio c/w:     0.999 speedup
 SCF:
 * wall-time:     0 d,  0 h,  0 min,  0.071 sec
 *  cpu-time:     0 d,  0 h,  0 min,  0.071 sec
 * ratio c/w:     0.995 speedup
 ANC optimizer:
 * wall-time:     0 d,  0 h,  0 min,  2.388 sec
 *  cpu-time:     0 d,  0 h,  0 min,  2.386 sec
 * ratio c/w:     0.999 speedup

