      -----------------------------------------------------------      
     |                   =====================                   |     
     |                           x T B                           |     
     |                   =====================                   |     
     |                         S. Grimme                         |     
     |          Mulliken Center for Theoretical Chemistry        |     
     |                    University of Bonn                     |     
      -----------------------------------------------------------      

   * xtb version 6.5.0 (homebrew) compiled by 'nhattrup@GPGGRP-SHANNON.CHEME.CMU.EDU' on 

   xtb is free software: you can redistribute it and/or modify it under
   the terms of the GNU Lesser General Public License as published by
   the Free Software Foundation, either version 3 of the License, or
   (at your option) any later version.
   
   xtb is distributed in the hope that it will be useful,
   but WITHOUT ANY WARRANTY; without even the implied warranty of
   MERCHANTABILITY or FITNESS FOR A PARTICULAR PURPOSE.  See the
   GNU Lesser General Public License for more details.
   
   Cite this work as:
   * C. Bannwarth, E. Caldeweyher, S. Ehlert, A. Hansen, P. Pracht,
     J. Seibert, S. Spicher, S. Grimme, WIREs Comput. Mol. Sci., 2020, 11,
     e01493. DOI: 10.1002/wcms.1493
   
   for GFN2-xTB:
   * C. Bannwarth, S. Ehlert and S. Grimme., J. Chem. Theory Comput., 2019,
     15, 1652-1671. DOI: 10.1021/acs.jctc.8b01176
   for GFN1-xTB:
   * S. Grimme, C. Bannwarth, P. Shushkov, J. Chem. Theory Comput., 2017,
     13, 1989-2009. DOI: 10.1021/acs.jctc.7b00118
   for GFN0-xTB:
   * P. Pracht, E. Caldeweyher, S. Ehlert, S. Grimme, ChemRxiv, 2019, preprint.
     DOI: 10.26434/chemrxiv.8326202.v1
   for GFN-FF:
   * S. Spicher and S. Grimme, Angew. Chem. Int. Ed., 2020, 59, 15665-15673.
     DOI: 10.1002/anie.202004239
   
   for ALPB and GBSA implicit solvation:
   * S. Ehlert, M. Stahn, S. Spicher, S. Grimme, J. Chem. Theory Comput.,
     2021, 17, 4250-4261. DOI: 10.1021/acs.jctc.1c00471
   
   for DFT-D4:
   * E. Caldeweyher, C. Bannwarth and S. Grimme, J. Chem. Phys., 2017,
     147, 034112. DOI: 10.1063/1.4993215
   * E. Caldeweyher, S. Ehlert, A. Hansen, H. Neugebauer, S. Spicher,
     C. Bannwarth and S. Grimme, J. Chem. Phys., 2019, 150, 154122.
     DOI: 10.1063/1.5090222
   * E. Caldeweyher, J.-M. Mewes, S. Ehlert and S. Grimme, Phys. Chem. Chem. Phys.
     2020, 22, 8499-8512. DOI: 10.1039/D0CP00502A
   
   for sTDA-xTB:
   * S. Grimme and C. Bannwarth, J. Chem. Phys., 2016, 145, 054103.
     DOI: 10.1063/1.4959605
   
   in the mass-spec context:
   * V. Asgeirsson, C. Bauer and S. Grimme, Chem. Sci., 2017, 8, 4879.
     DOI: 10.1039/c7sc00601b
   * J. Koopman and S. Grimme, ACS Omega 2019, 4, 12, 15120-15133.
     DOI: 10.1021/acsomega.9b02011
   
   for metadynamics refer to:
   * S. Grimme, J. Chem. Theory Comput., 2019, 155, 2847-2862
     DOI: 10.1021/acs.jctc.9b00143
   
   for SPH calculations refer to:
   * S. Spicher and S. Grimme, J. Chem. Theory Comput., 2021, 17, 1701-1714
     DOI: 10.1021/acs.jctc.0c01306
   
   with help from (in alphabetical order)
   P. Atkinson, C. Bannwarth, F. Bohle, G. Brandenburg, E. Caldeweyher
   M. Checinski, S. Dohm, S. Ehlert, S. Ehrlich, I. Gerasimov, C. Hölzer
   A. Katbashev, J. Koopman, C. Lavigne, S. Lehtola, F. März, M. Müller,
   F. Musil, H. Neugebauer, J. Pisarek, C. Plett, P. Pracht, F. Pultar,
   J. Seibert, P. Shushkov, S. Spicher, M. Stahn, M. Steiner, T. Strunk,
   J. Stückrath, T. Rose, and J. Unsleber
   
 * started run on 2022/07/09 at 18:33:05.997     

           -------------------------------------------------
          |                Calculation Setup                |
           -------------------------------------------------

          program call               : /opt/homebrew/bin/xtb bvl_bpin2_scan_3-3_xtb.xyz --chrg 0 --uhf 0 --opt --input xcontrol_bvl_bpin2_scan_3-3_xtb
          coordinate file            : bvl_bpin2_scan_3-3_xtb.xyz
          omp threads                :                     1

   ID    Z sym.   atoms
    1    6 C      1, 2, 4-7, 10-12, 14, 16, 19-24, 26, 27, 29-31
    2    8 O      3, 8, 18, 25
    3    5 B      9, 17
    4    1 H      13, 15, 28, 32-60
constraining bond 12 31 to    1.8333000 Å, actual value:    1.7172683 Å
constraining bond 10 29 to    2.1667000 Å, actual value:    2.2787853 Å

           -------------------------------------------------
          |                 G F N 2 - x T B                 |
           -------------------------------------------------

        Reference                      10.1021/acs.jctc.8b01176
      * Hamiltonian:
        H0-scaling (s, p, d)           1.850000    2.230000    2.230000
        zeta-weighting                 0.500000
      * Dispersion:
        s8                             2.700000
        a1                             0.520000
        a2                             5.000000
        s9                             5.000000
      * Repulsion:
        kExp                           1.500000    1.000000
        rExp                           1.000000
      * Coulomb:
        alpha                          2.000000
        third order                    shell-resolved
        anisotropic                    true
        a3                             3.000000
        a5                             4.000000
        cn-shift                       1.200000
        cn-exp                         4.000000
        max-rad                        5.000000


          ...................................................
          :                      SETUP                      :
          :.................................................:
          :  # basis functions                 144          :
          :  # atomic orbitals                 144          :
          :  # shells                           88          :
          :  # electrons                       150          :
          :  max. iterations                   250          :
          :  Hamiltonian                  GFN2-xTB          :
          :  restarted?                      false          :
          :  GBSA solvation                  false          :
          :  PC potential                    false          :
          :  electronic temp.          300.0000000     K    :
          :  accuracy                    1.0000000          :
          :  -> integral cutoff          0.2500000E+02      :
          :  -> integral neglect         0.1000000E-07      :
          :  -> SCF convergence          0.1000000E-05 Eh   :
          :  -> wf. convergence          0.1000000E-03 e    :
          :  Broyden damping             0.4000000          :
          ...................................................

 iter      E             dE          RMSdq      gap      omega  full diag
   1    -82.9631710 -0.829632E+02  0.468E+00    3.40       0.0  T
   2    -83.3429131 -0.379742E+00  0.287E+00    3.11       1.0  T
   3    -83.3553468 -0.124338E-01  0.137E+00    3.37       1.0  T
   4    -83.3773674 -0.220206E-01  0.427E-01    3.28       1.0  T
   5    -83.3885443 -0.111769E-01  0.176E-01    3.32       1.0  T
   6    -83.3890560 -0.511632E-03  0.118E-01    3.33       1.0  T
   7    -83.3894230 -0.367036E-03  0.302E-02    3.32       1.0  T
   8    -83.3894494 -0.264209E-04  0.102E-02    3.32       1.3  T
   9    -83.3894513 -0.190457E-05  0.518E-03    3.32       2.5  T
  10    -83.3894519 -0.538619E-06  0.256E-03    3.32       5.0  T
  11    -83.3894520 -0.156454E-06  0.699E-04    3.32      18.5  T
  12    -83.3894521 -0.218380E-07  0.307E-04    3.32      42.0  T

   *** convergence criteria satisfied after 12 iterations ***

         #    Occupation            Energy/Eh            Energy/eV
      -------------------------------------------------------------
         1        2.0000           -0.6880139             -18.7218
       ...           ...                  ...                  ...
        69        2.0000           -0.4063146             -11.0564
        70        2.0000           -0.3977281             -10.8227
        71        2.0000           -0.3954433             -10.7606
        72        2.0000           -0.3946504             -10.7390
        73        2.0000           -0.3875388             -10.5455
        74        2.0000           -0.3516271              -9.5683
        75        2.0000           -0.3474770              -9.4553 (HOMO)
        76                         -0.2253246              -6.1314 (LUMO)
        77                         -0.2142430              -5.8298
        78                         -0.1895027              -5.1566
        79                         -0.1045005              -2.8436
        80                         -0.0956039              -2.6015
       ...                                ...                  ...
       144                          0.6843451              18.6220
      -------------------------------------------------------------
                  HL-Gap            0.1221525 Eh            3.3239 eV
             Fermi-level           -0.2864008 Eh           -7.7934 eV

 SCC (total)                   0 d,  0 h,  0 min,  0.068 sec
 SCC setup                      ...        0 min,  0.000 sec (  0.369%)
 Dispersion                     ...        0 min,  0.000 sec (  0.627%)
 classical contributions        ...        0 min,  0.000 sec (  0.271%)
 integral evaluation            ...        0 min,  0.006 sec (  9.131%)
 iterations                     ...        0 min,  0.033 sec ( 48.568%)
 molecular gradient             ...        0 min,  0.028 sec ( 40.520%)
 printout                       ...        0 min,  0.000 sec (  0.503%)

         :::::::::::::::::::::::::::::::::::::::::::::::::::::
         ::                     SUMMARY                     ::
         :::::::::::::::::::::::::::::::::::::::::::::::::::::
         :: total energy             -82.125612189388 Eh    ::
         :: gradient norm              1.679317576566 Eh/a0 ::
         :: HOMO-LUMO gap              3.323937995053 eV    ::
         ::.................................................::
         :: SCC energy               -83.389452050940 Eh    ::
         :: -> isotropic ES            0.147370896951 Eh    ::
         :: -> anisotropic ES          0.012384940461 Eh    ::
         :: -> anisotropic XC          0.026786630602 Eh    ::
         :: -> dispersion             -0.061401663324 Eh    ::
         :: repulsion energy           1.077225714038 Eh    ::
         :: add. restraining           0.185884414348 Eh    ::
         :: total charge               0.000000000000 e     ::
         :::::::::::::::::::::::::::::::::::::::::::::::::::::

      ----------------------------------------------------------- 
     |                   =====================                   |
     |                        A N C O P T                        |
     |                   =====================                   |
     |               Approximate Normal Coordinate               |
     |                Rational Function Optimizer                |
      ----------------------------------------------------------- 

          ...................................................
          :                      SETUP                      :
          :.................................................:
          :   optimization level            normal          :
          :   max. optcycles                   200          :
          :   ANC micro-cycles                  20          :
          :   degrees of freedom               174          :
          :.................................................:
          :   RF solver                   davidson          :
          :   write xtbopt.log                true          :
          :   linear?                        false          :
          :   energy convergence         0.5000000E-05 Eh   :
          :   grad. convergence          0.1000000E-02 Eh/α :
          :   maximium RF displ.         1.0000000          :
          :   Hlow (freq-cutoff)         0.1000000E-01      :
          :   Hmax (freq-cutoff)         5.0000000          :
          :   S6 in model hess.         20.0000000          :
          ...................................................

generating ANC from model Hessian ...
Using Lindh-Hessian (1995)
 Shifting diagonal of input Hessian by   0.23561112046774391     
 Lowest  eigenvalues of input Hessian
    0.010000    0.138796    0.000000    0.000000    0.000000    0.000000
    0.000000    0.000000    0.235709    0.235749    0.235878    0.237238
    0.237468    0.238250    0.238896    0.238956    0.240289    0.240792
 Highest eigenvalues
    1.951333    2.119176    2.132260    2.291963    8.915441    9.183305


........................................................................
.............................. CYCLE    1 ..............................
........................................................................
   1    -83.3894520 -0.833895E+02  0.169E-04    3.32       0.0  T
   2    -83.3894521 -0.175639E-08  0.980E-05    3.32     131.7  T
   3    -83.3894521 -0.566757E-09  0.332E-05    3.32     389.3  T
     SCC iter.                  ...        0 min,  0.009 sec
     gradient                   ...        0 min,  0.028 sec
 * total energy  :   -82.1256122 Eh     change       -0.1127603E-08 Eh
   gradient norm :     1.6793171 Eh/α   predicted     0.0000000E+00 (-100.00%)
   displ. norm   :     0.3108870 α      lambda       -0.5158191E+00
   maximum displ.:     0.2365025 α      in ANC's #174, #173, #127, ...

........................................................................
.............................. CYCLE    2 ..............................
........................................................................
   1    -83.3684182 -0.833684E+02  0.356E-01    3.10       0.0  T
   2    -83.3684606 -0.424398E-04  0.268E-01    3.12       1.0  T
   3    -83.3688046 -0.343929E-03  0.156E-01    3.12       1.0  T
   4    -83.3696507 -0.846098E-03  0.396E-02    3.11       1.0  T
   5    -83.3697299 -0.792626E-04  0.720E-03    3.12       1.8  T
   6    -83.3697313 -0.139593E-05  0.367E-03    3.12       3.5  T
   7    -83.3697314 -0.943223E-07  0.906E-04    3.12      14.2  T
   8    -83.3697314 -0.330800E-07  0.302E-04    3.12      42.7  T
     SCC iter.                  ...        0 min,  0.022 sec
     gradient                   ...        0 min,  0.027 sec
 * total energy  :   -82.2558753 Eh     change       -0.1302631E+00 Eh
   gradient norm :     0.8393623 Eh/α   predicted    -0.2829754E+00 ( 117.23%)
   displ. norm   :     0.1060736 α      lambda       -0.8516865E-01
   maximum displ.:     0.0803400 α      in ANC's #174, #173, #127, ...

........................................................................
.............................. CYCLE    3 ..............................
........................................................................
   1    -83.3771904 -0.833772E+02  0.122E-01    3.19       0.0  T
   2    -83.3772011 -0.106286E-04  0.105E-01    3.18       1.0  T
   3    -83.3774500 -0.248938E-03  0.548E-02    3.18       1.0  T
   4    -83.3774720 -0.220010E-04  0.166E-02    3.18       1.0  T
   5    -83.3774853 -0.132707E-04  0.369E-03    3.18       3.5  T
   6    -83.3774859 -0.626016E-06  0.141E-03    3.18       9.2  T
   7    -83.3774859 -0.126799E-07  0.416E-04    3.18      31.0  T
   8    -83.3774859 -0.473923E-08  0.166E-04    3.18      78.0  T
     SCC iter.                  ...        0 min,  0.022 sec
     gradient                   ...        0 min,  0.028 sec
 * total energy  :   -82.2996506 Eh     change       -0.4377530E-01 Eh
   gradient norm :     0.0346929 Eh/α   predicted    -0.4306359E-01 (  -1.63%)
   displ. norm   :     0.0413274 α      lambda       -0.9608993E-03
   maximum displ.:     0.0117002 α      in ANC's #1, #28, #127, ...

........................................................................
.............................. CYCLE    4 ..............................
........................................................................
   1    -83.3779749 -0.833780E+02  0.282E-02    3.19       0.0  T
   2    -83.3779780 -0.307472E-05  0.179E-02    3.19       1.0  T
   3    -83.3779729  0.506927E-05  0.130E-02    3.19       1.0  T
   4    -83.3779812 -0.826849E-05  0.313E-03    3.19       4.1  T
   5    -83.3779817 -0.474986E-06  0.788E-04    3.19      16.4  T
   6    -83.3779817 -0.254596E-07  0.332E-04    3.19      38.9  T
     SCC iter.                  ...        0 min,  0.017 sec
     gradient                   ...        0 min,  0.028 sec
 * total energy  :   -82.3003881 Eh     change       -0.7375099E-03 Eh
   gradient norm :     0.0202141 Eh/α   predicted    -0.4813168E-03 ( -34.74%)
   displ. norm   :     0.2552371 α      lambda       -0.1914009E-02
   maximum displ.:     0.2264356 α      in ANC's #1, #28, #37, ...

........................................................................
.............................. CYCLE    5 ..............................
........................................................................
   1    -83.3740191 -0.833740E+02  0.168E-01    3.17       0.0  T
   2    -83.3740603 -0.411472E-04  0.982E-02    3.17       1.0  T
   3    -83.3739434  0.116889E-03  0.704E-02    3.17       1.0  T
   4    -83.3741273 -0.183890E-03  0.106E-02    3.17       1.2  T
   5    -83.3741331 -0.584963E-05  0.269E-03    3.17       4.8  T
   6    -83.3741335 -0.351973E-06  0.117E-03    3.17      11.0  T
   7    -83.3741335 -0.227306E-07  0.361E-04    3.17      35.8  T
   8    -83.3741335 -0.234344E-08  0.122E-04    3.17     106.1  T
     SCC iter.                  ...        0 min,  0.022 sec
     gradient                   ...        0 min,  0.028 sec
 * total energy  :   -82.2978937 Eh     change        0.2494413E-02 Eh
   gradient norm :     0.0595060 Eh/α   predicted    -0.1019344E-02 (-140.87%)
   displ. norm   :     0.2564618 α      lambda       -0.7409791E-02
   maximum displ.:     0.2496278 α      in ANC's #1, #28, #37, ...

........................................................................
.............................. CYCLE    6 ..............................
........................................................................
   1    -83.3789289 -0.833789E+02  0.163E-01    3.20       0.0  T
   2    -83.3789686 -0.396199E-04  0.939E-02    3.20       1.0  T
   3    -83.3788975  0.711027E-04  0.687E-02    3.20       1.0  T
   4    -83.3790447 -0.147219E-03  0.619E-03    3.20       2.1  T
   5    -83.3790470 -0.234507E-05  0.208E-03    3.20       6.2  T
   6    -83.3790472 -0.158698E-06  0.119E-03    3.20      10.9  T
   7    -83.3790472 -0.346674E-07  0.320E-04    3.20      40.3  T
   8    -83.3790472 -0.269873E-08  0.131E-04    3.20      98.7  T
     SCC iter.                  ...        0 min,  0.022 sec
     gradient                   ...        0 min,  0.028 sec
 * total energy  :   -82.3007054 Eh     change       -0.2811687E-02 Eh
   gradient norm :     0.0402927 Eh/α   predicted    -0.3948703E-02 (  40.44%)
   displ. norm   :     0.1005766 α      lambda       -0.1709202E-02
   maximum displ.:     0.0273680 α      in ANC's #127, #109, #116, ...

........................................................................
.............................. CYCLE    7 ..............................
........................................................................
   1    -83.3791787 -0.833792E+02  0.753E-02    3.20       0.0  T
   2    -83.3791980 -0.192747E-04  0.473E-02    3.20       1.0  T
   3    -83.3791672  0.307878E-04  0.358E-02    3.20       1.0  T
   4    -83.3792276 -0.603853E-04  0.789E-03    3.20       1.6  T
   5    -83.3792303 -0.275104E-05  0.228E-03    3.20       5.7  T
   6    -83.3792306 -0.230066E-06  0.867E-04    3.20      14.9  T
   7    -83.3792306 -0.123777E-07  0.299E-04    3.20      43.2  T
     SCC iter.                  ...        0 min,  0.019 sec
     gradient                   ...        0 min,  0.028 sec
 * total energy  :   -82.3010352 Eh     change       -0.3298593E-03 Eh
   gradient norm :     0.0349950 Eh/α   predicted    -0.8632625E-03 ( 161.71%)
   displ. norm   :     0.0576015 α      lambda       -0.5794063E-03
   maximum displ.:     0.0209314 α      in ANC's #28, #37, #29, ...

........................................................................
.............................. CYCLE    8 ..............................
........................................................................
   1    -83.3797006 -0.833797E+02  0.359E-02    3.19       0.0  T
   2    -83.3797031 -0.253522E-05  0.221E-02    3.20       1.0  T
   3    -83.3796910  0.121211E-04  0.162E-02    3.20       1.0  T
   4    -83.3797070 -0.159696E-04  0.296E-03    3.20       4.4  T
   5    -83.3797074 -0.405201E-06  0.835E-04    3.20      15.5  T
   6    -83.3797074 -0.279833E-07  0.353E-04    3.20      36.6  T
     SCC iter.                  ...        0 min,  0.017 sec
     gradient                   ...        0 min,  0.028 sec
 * total energy  :   -82.3013900 Eh     change       -0.3547927E-03 Eh
   gradient norm :     0.0092526 Eh/α   predicted    -0.2906990E-03 ( -18.07%)
   displ. norm   :     0.0443240 α      lambda       -0.1722517E-03
   maximum displ.:     0.0198985 α      in ANC's #28, #29, #37, ...

........................................................................
.............................. CYCLE    9 ..............................
........................................................................
   1    -83.3800909 -0.833801E+02  0.220E-02    3.19       0.0  T
   2    -83.3800911 -0.193339E-06  0.130E-02    3.20       1.0  T
   3    -83.3800898  0.132171E-05  0.415E-03    3.19       3.1  T
   4    -83.3800912 -0.142117E-05  0.893E-04    3.20      14.5  T
   5    -83.3800912 -0.397126E-07  0.265E-04    3.20      48.7  T
   6    -83.3800912 -0.290896E-09  0.169E-04    3.20      76.4  T
     SCC iter.                  ...        0 min,  0.016 sec
     gradient                   ...        0 min,  0.027 sec
 * total energy  :   -82.3015336 Eh     change       -0.1436332E-03 Eh
   gradient norm :     0.0085431 Eh/α   predicted    -0.8631206E-04 ( -39.91%)
   displ. norm   :     0.1277779 α      lambda       -0.4358970E-03
   maximum displ.:     0.0603689 α      in ANC's #28, #29, #37, ...

........................................................................
.............................. CYCLE   10 ..............................
........................................................................
   1    -83.3809756 -0.833810E+02  0.604E-02    3.19       0.0  T
   2    -83.3809762 -0.609175E-06  0.358E-02    3.19       1.0  T
   3    -83.3809759  0.251707E-06  0.306E-03    3.19       4.2  T
   4    -83.3809763 -0.428688E-06  0.883E-04    3.19      14.6  T
   5    -83.3809763 -0.631684E-08  0.584E-04    3.19      22.1  T
     SCC iter.                  ...        0 min,  0.014 sec
     gradient                   ...        0 min,  0.028 sec
 * total energy  :   -82.3018213 Eh     change       -0.2876678E-03 Eh
   gradient norm :     0.0142060 Eh/α   predicted    -0.2214918E-03 ( -23.00%)
   displ. norm   :     0.0748943 α      lambda       -0.1698250E-03
   maximum displ.:     0.0374899 α      in ANC's #28, #29, #37, ...

........................................................................
.............................. CYCLE   11 ..............................
........................................................................
   1    -83.3814449 -0.833814E+02  0.345E-02    3.20       0.0  T
   2    -83.3814453 -0.437654E-06  0.205E-02    3.20       1.0  T
   3    -83.3814426  0.270457E-05  0.613E-03    3.20       2.1  T
   4    -83.3814455 -0.293072E-05  0.114E-03    3.20      11.3  T
   5    -83.3814456 -0.615523E-07  0.470E-04    3.20      27.5  T
   6    -83.3814456 -0.430515E-08  0.265E-04    3.20      48.7  T
     SCC iter.                  ...        0 min,  0.019 sec
     gradient                   ...        0 min,  0.028 sec
 * total energy  :   -82.3019384 Eh     change       -0.1170918E-03 Eh
   gradient norm :     0.0095586 Eh/α   predicted    -0.8541277E-04 ( -27.05%)
   displ. norm   :     0.0447225 α      lambda       -0.9555447E-04
   maximum displ.:     0.0236245 α      in ANC's #28, #29, #8, ...

........................................................................
.............................. CYCLE   12 ..............................
........................................................................
   1    -83.3818703 -0.833819E+02  0.212E-02    3.20       0.0  T
   2    -83.3818707 -0.419611E-06  0.126E-02    3.20       1.0  T
   3    -83.3818685  0.216193E-05  0.554E-03    3.20       2.3  T
   4    -83.3818709 -0.237171E-05  0.115E-03    3.20      11.2  T
   5    -83.3818710 -0.711813E-07  0.337E-04    3.20      38.4  T
   6    -83.3818710 -0.332498E-08  0.179E-04    3.20      72.1  T
     SCC iter.                  ...        0 min,  0.017 sec
     gradient                   ...        0 min,  0.028 sec
 * total energy  :   -82.3020047 Eh     change       -0.6626931E-04 Eh
   gradient norm :     0.0042119 Eh/α   predicted    -0.4788862E-04 ( -27.74%)
   displ. norm   :     0.0326080 α      lambda       -0.6158339E-04
   maximum displ.:     0.0169911 α      in ANC's #28, #29, #8, ...

........................................................................
.............................. CYCLE   13 ..............................
........................................................................
   1    -83.3821785 -0.833822E+02  0.149E-02    3.20       0.0  T
   2    -83.3821787 -0.189099E-06  0.881E-03    3.20       1.5  T
   3    -83.3821781  0.637773E-06  0.303E-03    3.20       4.3  T
   4    -83.3821788 -0.694599E-06  0.736E-04    3.20      17.5  T
   5    -83.3821788 -0.304745E-07  0.208E-04    3.20      62.1  T
     SCC iter.                  ...        0 min,  0.014 sec
     gradient                   ...        0 min,  0.028 sec
 * total energy  :   -82.3020503 Eh     change       -0.4564979E-04 Eh
   gradient norm :     0.0052014 Eh/α   predicted    -0.3083093E-04 ( -32.46%)
   displ. norm   :     0.0430519 α      lambda       -0.6739679E-04
   maximum displ.:     0.0222042 α      in ANC's #28, #8, #44, ...

........................................................................
.............................. CYCLE   14 ..............................
........................................................................
   1    -83.3823438 -0.833823E+02  0.170E-02    3.20       0.0  T
   2    -83.3823439 -0.119551E-06  0.101E-02    3.20       1.3  T
   3    -83.3823437  0.295322E-06  0.251E-03    3.20       5.2  T
   4    -83.3823440 -0.329414E-06  0.481E-04    3.20      26.9  T
   5    -83.3823440 -0.884890E-08  0.218E-04    3.20      59.2  T
     SCC iter.                  ...        0 min,  0.014 sec
     gradient                   ...        0 min,  0.028 sec
 * total energy  :   -82.3020996 Eh     change       -0.4929938E-04 Eh
   gradient norm :     0.0068739 Eh/α   predicted    -0.3377000E-04 ( -31.50%)
   displ. norm   :     0.0494492 α      lambda       -0.6425266E-04
   maximum displ.:     0.0261566 α      in ANC's #28, #8, #44, ...

........................................................................
.............................. CYCLE   15 ..............................
........................................................................
   1    -83.3822121 -0.833822E+02  0.167E-02    3.20       0.0  T
   2    -83.3822122 -0.901773E-07  0.997E-03    3.20       1.3  T
   3    -83.3822114  0.813198E-06  0.377E-03    3.20       3.4  T
   4    -83.3822123 -0.894577E-06  0.481E-04    3.20      26.8  T
   5    -83.3822123 -0.668048E-08  0.300E-04    3.20      43.0  T
     SCC iter.                  ...        0 min,  0.014 sec
     gradient                   ...        0 min,  0.028 sec
 * total energy  :   -82.3021455 Eh     change       -0.4583197E-04 Eh
   gradient norm :     0.0061313 Eh/α   predicted    -0.3222061E-04 ( -29.70%)
   displ. norm   :     0.0414841 α      lambda       -0.4816224E-04
   maximum displ.:     0.0222073 α      in ANC's #28, #8, #44, ...

........................................................................
.............................. CYCLE   16 ..............................
........................................................................
   1    -83.3818624 -0.833819E+02  0.132E-02    3.20       0.0  T
   2    -83.3818626 -0.126472E-06  0.795E-03    3.20       1.6  T
   3    -83.3818617  0.900345E-06  0.396E-03    3.20       3.3  T
   4    -83.3818627 -0.101741E-05  0.598E-04    3.20      21.6  T
   5    -83.3818627 -0.151791E-07  0.269E-04    3.20      48.1  T
   6    -83.3818627 -0.181602E-08  0.134E-04    3.20      96.7  T
     SCC iter.                  ...        0 min,  0.016 sec
     gradient                   ...        0 min,  0.028 sec
 * total energy  :   -82.3021791 Eh     change       -0.3368711E-04 Eh
   gradient norm :     0.0032375 Eh/α   predicted    -0.2414385E-04 ( -28.33%)
   displ. norm   :     0.0299767 α      lambda       -0.3194949E-04
   maximum displ.:     0.0158812 α      in ANC's #28, #8, #37, ...

........................................................................
.............................. CYCLE   17 ..............................
........................................................................
   1    -83.3815093 -0.833815E+02  0.110E-02    3.20       0.0  T
   2    -83.3815094 -0.109298E-06  0.654E-03    3.20       2.0  T
   3    -83.3815090  0.432120E-06  0.287E-03    3.20       4.5  T
   4    -83.3815095 -0.494155E-06  0.506E-04    3.20      25.5  T
   5    -83.3815095 -0.113941E-07  0.203E-04    3.20      63.5  T
     SCC iter.                  ...        0 min,  0.014 sec
     gradient                   ...        0 min,  0.028 sec
 * total energy  :   -82.3022020 Eh     change       -0.2283960E-04 Eh
   gradient norm :     0.0027277 Eh/α   predicted    -0.1600133E-04 ( -29.94%)
   displ. norm   :     0.0277194 α      lambda       -0.2617194E-04
   maximum displ.:     0.0143022 α      in ANC's #28, #8, #37, ...

........................................................................
.............................. CYCLE   18 ..............................
........................................................................
   1    -83.3812421 -0.833812E+02  0.114E-02    3.20       0.0  T
   2    -83.3812421 -0.488775E-07  0.676E-03    3.20       1.9  T
   3    -83.3812419  0.193611E-06  0.208E-03    3.20       6.2  T
   4    -83.3812422 -0.218915E-06  0.335E-04    3.20      38.5  T
   5    -83.3812422 -0.340211E-08  0.173E-04    3.20      74.7  T
     SCC iter.                  ...        0 min,  0.014 sec
     gradient                   ...        0 min,  0.028 sec
 * total energy  :   -82.3022213 Eh     change       -0.1927023E-04 Eh
   gradient norm :     0.0038404 Eh/α   predicted    -0.1310383E-04 ( -32.00%)
   displ. norm   :     0.0337192 α      lambda       -0.2718914E-04
   maximum displ.:     0.0174692 α      in ANC's #28, #8, #29, ...

........................................................................
.............................. CYCLE   19 ..............................
........................................................................
   1    -83.3810575 -0.833811E+02  0.131E-02    3.20       0.0  T
   2    -83.3810575 -0.246338E-07  0.781E-03    3.20       1.7  T
   3    -83.3810573  0.210057E-06  0.193E-03    3.20       6.7  T
   4    -83.3810575 -0.230584E-06  0.321E-04    3.20      40.3  T
   5    -83.3810575 -0.223578E-08  0.202E-04    3.20      64.0  T
     SCC iter.                  ...        0 min,  0.014 sec
     gradient                   ...        0 min,  0.028 sec
 * total energy  :   -82.3022413 Eh     change       -0.1999897E-04 Eh
   gradient norm :     0.0037358 Eh/α   predicted    -0.1361706E-04 ( -31.91%)
   displ. norm   :     0.0395213 α      lambda       -0.2781808E-04
   maximum displ.:     0.0207352 α      in ANC's #28, #8, #29, ...

........................................................................
.............................. CYCLE   20 ..............................
........................................................................
   1    -83.3809766 -0.833810E+02  0.137E-02    3.20       0.0  T
   2    -83.3809766 -0.382666E-07  0.823E-03    3.20       1.6  T
   3    -83.3809761  0.517962E-06  0.265E-03    3.20       4.9  T
   4    -83.3809767 -0.561424E-06  0.382E-04    3.20      33.8  T
   5    -83.3809767 -0.413800E-08  0.213E-04    3.20      60.6  T
     SCC iter.                  ...        0 min,  0.014 sec
     gradient                   ...        0 min,  0.028 sec
 * total energy  :   -82.3022615 Eh     change       -0.2027926E-04 Eh
   gradient norm :     0.0029308 Eh/α   predicted    -0.1393756E-04 ( -31.27%)
   displ. norm   :     0.0422952 α      lambda       -0.2649083E-04
   maximum displ.:     0.0221210 α      in ANC's #28, #8, #29, ...
 * RMSD in coord.:     0.0903158 α      energy gain  -0.1766493E+00 Eh

generating ANC from model Hessian ...
Using Lindh-Hessian (1995)
 Shifting diagonal of input Hessian by    9.9070225047915832E-003
 Lowest  eigenvalues of input Hessian
    0.000000    0.000000    0.000000    0.000000    0.000000    0.000000
    0.010000    0.010032    0.010089    0.010188    0.010959    0.011745
    0.012301    0.013180    0.013218    0.013454    0.014910    0.015114
 Highest eigenvalues
    1.725076    1.882291    1.910751    1.919332    8.671717    8.819390


........................................................................
.............................. CYCLE   21 ..............................
........................................................................
   1    -83.3809706 -0.833810E+02  0.130E-02    3.20       0.0  T
   2    -83.3809706 -0.774593E-07  0.789E-03    3.20       1.6  T
   3    -83.3809701  0.533246E-06  0.271E-03    3.20       4.8  T
   4    -83.3809707 -0.583528E-06  0.446E-04    3.20      29.0  T
   5    -83.3809707 -0.803823E-08  0.213E-04    3.20      60.5  T
     SCC iter.                  ...        0 min,  0.015 sec
     gradient                   ...        0 min,  0.028 sec
 * total energy  :   -82.3022807 Eh     change       -0.1913975E-04 Eh
   gradient norm :     0.0025536 Eh/α   predicted     0.0000000E+00 (-100.00%)
   displ. norm   :     0.0500499 α      lambda       -0.5053869E-04
   maximum displ.:     0.0228189 α      in ANC's #10, #6, #27, ...

........................................................................
.............................. CYCLE   22 ..............................
........................................................................
   1    -83.3810877 -0.833811E+02  0.152E-02    3.21       0.0  T
   2    -83.3810878 -0.491632E-07  0.903E-03    3.21       1.4  T
   3    -83.3810873  0.435152E-06  0.309E-03    3.21       4.2  T
   4    -83.3810878 -0.483311E-06  0.373E-04    3.21      34.6  T
   5    -83.3810878 -0.485028E-08  0.216E-04    3.21      59.7  T
     SCC iter.                  ...        0 min,  0.014 sec
     gradient                   ...        0 min,  0.028 sec
 * total energy  :   -82.3023216 Eh     change       -0.4093804E-04 Eh
   gradient norm :     0.0014457 Eh/α   predicted    -0.2794101E-04 ( -31.75%)
   displ. norm   :     0.1294271 α      lambda       -0.4558779E-04
   maximum displ.:     0.0611015 α      in ANC's #10, #6, #1, ...

........................................................................
.............................. CYCLE   23 ..............................
........................................................................
   1    -83.3811903 -0.833812E+02  0.308E-02    3.21       0.0  T
   2    -83.3811905 -0.153277E-06  0.184E-02    3.21       1.0  T
   3    -83.3811896  0.870024E-06  0.426E-03    3.21       3.0  T
   4    -83.3811906 -0.983691E-06  0.570E-04    3.21      22.7  T
   5    -83.3811906 -0.311840E-08  0.322E-04    3.21      40.1  T
     SCC iter.                  ...        0 min,  0.014 sec
     gradient                   ...        0 min,  0.028 sec
 * total energy  :   -82.3023547 Eh     change       -0.3308200E-04 Eh
   gradient norm :     0.0018140 Eh/α   predicted    -0.2296565E-04 ( -30.58%)
   displ. norm   :     0.0600465 α      lambda       -0.1558368E-04
   maximum displ.:     0.0280030 α      in ANC's #6, #1, #2, ...

........................................................................
.............................. CYCLE   24 ..............................
........................................................................
   1    -83.3811746 -0.833812E+02  0.124E-02    3.21       0.0  T
   2    -83.3811746 -0.253021E-07  0.745E-03    3.21       1.7  T
   3    -83.3811746  0.452341E-07  0.101E-03    3.21      12.8  T
   4    -83.3811746 -0.531098E-07  0.287E-04    3.21      45.0  T
   5    -83.3811746 -0.183734E-08  0.168E-04    3.21      77.0  T
     SCC iter.                  ...        0 min,  0.014 sec
     gradient                   ...        0 min,  0.028 sec
 * total energy  :   -82.3023732 Eh     change       -0.1846499E-04 Eh
   gradient norm :     0.0027082 Eh/α   predicted    -0.7804850E-05 ( -57.73%)
   displ. norm   :     0.0885835 α      lambda       -0.2592908E-04
   maximum displ.:     0.0452314 α      in ANC's #1, #6, #2, ...

........................................................................
.............................. CYCLE   25 ..............................
........................................................................
   1    -83.3810611 -0.833811E+02  0.162E-02    3.22       0.0  T
   2    -83.3810611 -0.269581E-07  0.972E-03    3.22       1.3  T
   3    -83.3810610  0.124626E-06  0.147E-03    3.22       8.8  T
   4    -83.3810611 -0.138789E-06  0.372E-04    3.22      34.7  T
   5    -83.3810611 -0.325011E-08  0.226E-04    3.22      57.2  T
     SCC iter.                  ...        0 min,  0.014 sec
     gradient                   ...        0 min,  0.028 sec
 * total energy  :   -82.3023908 Eh     change       -0.1764437E-04 Eh
   gradient norm :     0.0029905 Eh/α   predicted    -0.1308282E-04 ( -25.85%)
   displ. norm   :     0.0979493 α      lambda       -0.1676099E-04
   maximum displ.:     0.0526210 α      in ANC's #1, #2, #6, ...

........................................................................
.............................. CYCLE   26 ..............................
........................................................................
   1    -83.3809003 -0.833809E+02  0.157E-02    3.22       0.0  T
   2    -83.3809004 -0.240395E-07  0.945E-03    3.22       1.4  T
   3    -83.3809003  0.173748E-07  0.767E-04    3.22      16.8  T
   4    -83.3809004 -0.263036E-07  0.295E-04    3.22      43.8  T
     SCC iter.                  ...        0 min,  0.011 sec
     gradient                   ...        0 min,  0.028 sec
 * total energy  :   -82.3024033 Eh     change       -0.1248049E-04 Eh
   gradient norm :     0.0008758 Eh/α   predicted    -0.8462302E-05 ( -32.20%)
   displ. norm   :     0.1294599 α      lambda       -0.1221183E-04
   maximum displ.:     0.0743234 α      in ANC's #1, #2, #6, ...

........................................................................
.............................. CYCLE   27 ..............................
........................................................................
   1    -83.3808369 -0.833808E+02  0.173E-02    3.22       0.0  T
   2    -83.3808369 -0.348159E-07  0.104E-02    3.22       1.2  T
   3    -83.3808369  0.587485E-07  0.125E-03    3.22      10.3  T
   4    -83.3808369 -0.756161E-07  0.357E-04    3.22      36.1  T
   5    -83.3808369 -0.104509E-08  0.199E-04    3.22      64.8  T
     SCC iter.                  ...        0 min,  0.014 sec
     gradient                   ...        0 min,  0.028 sec
 * total energy  :   -82.3024179 Eh     change       -0.1463721E-04 Eh
   gradient norm :     0.0026870 Eh/α   predicted    -0.6152661E-05 ( -57.97%)
   displ. norm   :     0.0883174 α      lambda       -0.1522087E-04
   maximum displ.:     0.0530104 α      in ANC's #1, #2, #4, ...

........................................................................
.............................. CYCLE   28 ..............................
........................................................................
   1    -83.3809144 -0.833809E+02  0.105E-02    3.22       0.0  T
   2    -83.3809145 -0.196897E-07  0.624E-03    3.22       2.1  T
   3    -83.3809144  0.496412E-07  0.101E-03    3.22      12.8  T
   4    -83.3809145 -0.592143E-07  0.234E-04    3.22      55.1  T
   5    -83.3809145 -0.873555E-09  0.126E-04    3.22     102.3  T
     SCC iter.                  ...        0 min,  0.014 sec
     gradient                   ...        0 min,  0.028 sec
 * total energy  :   -82.3024317 Eh     change       -0.1374963E-04 Eh
   gradient norm :     0.0019743 Eh/α   predicted    -0.7670570E-05 ( -44.21%)
   displ. norm   :     0.2422942 α      lambda       -0.2716915E-04
   maximum displ.:     0.1456096 α      in ANC's #1, #2, #4, ...

........................................................................
.............................. CYCLE   29 ..............................
........................................................................
   1    -83.3809577 -0.833810E+02  0.281E-02    3.22       0.0  T
   2    -83.3809578 -0.158272E-06  0.167E-02    3.22       1.0  T
   3    -83.3809574  0.390740E-06  0.271E-03    3.22       4.8  T
   4    -83.3809579 -0.460465E-06  0.647E-04    3.22      20.0  T
   5    -83.3809579 -0.774877E-08  0.344E-04    3.22      37.5  T
     SCC iter.                  ...        0 min,  0.014 sec
     gradient                   ...        0 min,  0.028 sec
 * total energy  :   -82.3024604 Eh     change       -0.2873541E-04 Eh
   gradient norm :     0.0009981 Eh/α   predicted    -0.1394362E-04 ( -51.48%)
   displ. norm   :     0.1620448 α      lambda       -0.1191026E-04
   maximum displ.:     0.1022887 α      in ANC's #1, #2, #4, ...

........................................................................
.............................. CYCLE   30 ..............................
........................................................................
   1    -83.3809823 -0.833810E+02  0.170E-02    3.22       0.0  T
   2    -83.3809824 -0.708367E-07  0.101E-02    3.22       1.3  T
   3    -83.3809820  0.362870E-06  0.233E-03    3.22       5.5  T
   4    -83.3809824 -0.399114E-06  0.472E-04    3.22      27.3  T
   5    -83.3809824 -0.824507E-08  0.255E-04    3.22      50.5  T
     SCC iter.                  ...        0 min,  0.014 sec
     gradient                   ...        0 min,  0.028 sec
 * total energy  :   -82.3024747 Eh     change       -0.1434177E-04 Eh
   gradient norm :     0.0019945 Eh/α   predicted    -0.6025371E-05 ( -57.99%)
   displ. norm   :     0.1244279 α      lambda       -0.1067881E-04
   maximum displ.:     0.0824189 α      in ANC's #1, #2, #3, ...

........................................................................
.............................. CYCLE   31 ..............................
........................................................................
   1    -83.3811793 -0.833812E+02  0.123E-02    3.22       0.0  T
   2    -83.3811793 -0.363917E-07  0.733E-03    3.22       1.8  T
   3    -83.3811793  0.190732E-07  0.687E-04    3.22      18.8  T
   4    -83.3811793 -0.257073E-07  0.297E-04    3.22      43.4  T
     SCC iter.                  ...        0 min,  0.011 sec
     gradient                   ...        0 min,  0.028 sec
 * total energy  :   -82.3024875 Eh     change       -0.1279207E-04 Eh
   gradient norm :     0.0027394 Eh/α   predicted    -0.5377073E-05 ( -57.97%)
   displ. norm   :     0.0884454 α      lambda       -0.1259293E-04
   maximum displ.:     0.0596278 α      in ANC's #1, #2, #3, ...

........................................................................
.............................. CYCLE   32 ..............................
........................................................................
   1    -83.3812546 -0.833813E+02  0.871E-03    3.22       0.0  T
   2    -83.3812546 -0.189382E-07  0.520E-03    3.22       2.5  T
   3    -83.3812545  0.111813E-06  0.126E-03    3.22      10.2  T
   4    -83.3812546 -0.121961E-06  0.248E-04    3.22      52.1  T
   5    -83.3812546 -0.249071E-08  0.127E-04    3.22     101.5  T
     SCC iter.                  ...        0 min,  0.015 sec
     gradient                   ...        0 min,  0.028 sec
 * total energy  :   -82.3024985 Eh     change       -0.1101069E-04 Eh
   gradient norm :     0.0006384 Eh/α   predicted    -0.6346354E-05 ( -42.36%)
   displ. norm   :     0.1793402 α      lambda       -0.1593172E-04
   maximum displ.:     0.1208848 α      in ANC's #1, #2, #3, ...

........................................................................
.............................. CYCLE   33 ..............................
........................................................................
   1    -83.3811662 -0.833812E+02  0.174E-02    3.22       0.0  T
   2    -83.3811662 -0.549987E-07  0.104E-02    3.22       1.2  T
   3    -83.3811660  0.168720E-06  0.163E-03    3.22       7.9  T
   4    -83.3811662 -0.189262E-06  0.439E-04    3.22      29.4  T
   5    -83.3811662 -0.658595E-08  0.237E-04    3.22      54.4  T
     SCC iter.                  ...        0 min,  0.014 sec
     gradient                   ...        0 min,  0.028 sec
 * total energy  :   -82.3025185 Eh     change       -0.1995697E-04 Eh
   gradient norm :     0.0020295 Eh/α   predicted    -0.8081070E-05 ( -59.51%)
   displ. norm   :     0.1294342 α      lambda       -0.1593863E-04
   maximum displ.:     0.0873072 α      in ANC's #1, #2, #3, ...

........................................................................
.............................. CYCLE   34 ..............................
........................................................................
   1    -83.3811283 -0.833811E+02  0.121E-02    3.22       0.0  T
   2    -83.3811284 -0.187626E-07  0.725E-03    3.22       1.8  T
   3    -83.3811283  0.398286E-07  0.946E-04    3.22      13.6  T
   4    -83.3811284 -0.486048E-07  0.286E-04    3.22      45.1  T
     SCC iter.                  ...        0 min,  0.011 sec
     gradient                   ...        0 min,  0.028 sec
 * total energy  :   -82.3025331 Eh     change       -0.1458511E-04 Eh
   gradient norm :     0.0014444 Eh/α   predicted    -0.8106413E-05 ( -44.42%)
   displ. norm   :     0.2611720 α      lambda       -0.2103130E-04
   maximum displ.:     0.1752009 α      in ANC's #1, #2, #3, ...

........................................................................
.............................. CYCLE   35 ..............................
........................................................................
   1    -83.3810166 -0.833810E+02  0.244E-02    3.22       0.0  T
   2    -83.3810167 -0.698523E-07  0.146E-02    3.22       1.0  T
   3    -83.3810164  0.260611E-06  0.217E-03    3.22       5.9  T
   4    -83.3810167 -0.299892E-06  0.599E-04    3.22      21.6  T
   5    -83.3810167 -0.651298E-08  0.310E-04    3.22      41.6  T
     SCC iter.                  ...        0 min,  0.014 sec
     gradient                   ...        0 min,  0.028 sec
 * total energy  :   -82.3025584 Eh     change       -0.2529220E-04 Eh
   gradient norm :     0.0008400 Eh/α   predicted    -0.1083765E-04 ( -57.15%)
   displ. norm   :     0.2055567 α      lambda       -0.1236157E-04
   maximum displ.:     0.1406618 α      in ANC's #1, #2, #3, ...

........................................................................
.............................. CYCLE   36 ..............................
........................................................................
   1    -83.3810620 -0.833811E+02  0.183E-02    3.23       0.0  T
   2    -83.3810620 -0.367452E-07  0.110E-02    3.23       1.2  T
   3    -83.3810619  0.863191E-07  0.135E-03    3.23       9.6  T
   4    -83.3810620 -0.105284E-06  0.442E-04    3.23      29.2  T
   5    -83.3810620 -0.287987E-08  0.230E-04    3.23      56.0  T
     SCC iter.                  ...        0 min,  0.014 sec
     gradient                   ...        0 min,  0.028 sec
 * total energy  :   -82.3025734 Eh     change       -0.1497617E-04 Eh
   gradient norm :     0.0004566 Eh/α   predicted    -0.6297547E-05 ( -57.95%)
   displ. norm   :     0.1358219 α      lambda       -0.7319773E-05
   maximum displ.:     0.0954157 α      in ANC's #1, #2, #3, ...

........................................................................
.............................. CYCLE   37 ..............................
........................................................................
   1    -83.3811794 -0.833812E+02  0.119E-02    3.23       0.0  T
   2    -83.3811794 -0.134327E-07  0.719E-03    3.23       1.8  T
   3    -83.3811794  0.586713E-07  0.105E-03    3.23      12.3  T
   4    -83.3811794 -0.674882E-07  0.270E-04    3.23      47.8  T
   5    -83.3811794 -0.106535E-08  0.129E-04    3.23      99.8  T
     SCC iter.                  ...        0 min,  0.014 sec
     gradient                   ...        0 min,  0.028 sec
 * total energy  :   -82.3025829 Eh     change       -0.9534679E-05 Eh
   gradient norm :     0.0004216 Eh/α   predicted    -0.3692746E-05 ( -61.27%)
   displ. norm   :     0.1156532 α      lambda       -0.7013597E-05
   maximum displ.:     0.0822208 α      in ANC's #1, #2, #3, ...

........................................................................
.............................. CYCLE   38 ..............................
........................................................................
   1    -83.3812529 -0.833813E+02  0.980E-03    3.23       0.0  T
   2    -83.3812529 -0.152622E-07  0.591E-03    3.23       2.2  T
   3    -83.3812528  0.970754E-07  0.129E-03    3.23      10.0  T
   4    -83.3812529 -0.108626E-06  0.249E-04    3.23      51.9  T
   5    -83.3812529 -0.974865E-09  0.152E-04    3.23      84.8  T
     SCC iter.                  ...        0 min,  0.014 sec
     gradient                   ...        0 min,  0.028 sec
 * total energy  :   -82.3025924 Eh     change       -0.9465220E-05 Eh
   gradient norm :     0.0005198 Eh/α   predicted    -0.3529382E-05 ( -62.71%)
   displ. norm   :     0.1386210 α      lambda       -0.8801360E-05
   maximum displ.:     0.0978504 α      in ANC's #1, #2, #3, ...

........................................................................
.............................. CYCLE   39 ..............................
........................................................................
   1    -83.3811964 -0.833812E+02  0.128E-02    3.23       0.0  T
   2    -83.3811965 -0.347623E-07  0.775E-03    3.23       1.7  T
   3    -83.3811962  0.251909E-06  0.202E-03    3.23       6.4  T
   4    -83.3811965 -0.279775E-06  0.340E-04    3.23      38.0  T
   5    -83.3811965 -0.253809E-08  0.198E-04    3.23      65.2  T
     SCC iter.                  ...        0 min,  0.014 sec
     gradient                   ...        0 min,  0.028 sec
 * total energy  :   -82.3026041 Eh     change       -0.1169952E-04 Eh
   gradient norm :     0.0004325 Eh/α   predicted    -0.4439189E-05 ( -62.06%)
   displ. norm   :     0.1683695 α      lambda       -0.9631986E-05
   maximum displ.:     0.1188741 α      in ANC's #1, #2, #3, ...

........................................................................
.............................. CYCLE   40 ..............................
........................................................................
   1    -83.3811003 -0.833811E+02  0.155E-02    3.23       0.0  T
   2    -83.3811004 -0.618491E-07  0.934E-03    3.23       1.4  T
   3    -83.3811000  0.402258E-06  0.256E-03    3.23       5.0  T
   4    -83.3811004 -0.452100E-06  0.404E-04    3.23      32.0  T
   5    -83.3811004 -0.291108E-08  0.236E-04    3.23      54.7  T
     SCC iter.                  ...        0 min,  0.014 sec
     gradient                   ...        0 min,  0.028 sec
 * total energy  :   -82.3026164 Eh     change       -0.1238652E-04 Eh
   gradient norm :     0.0003349 Eh/α   predicted    -0.4876945E-05 ( -60.63%)
   displ. norm   :     0.1638739 α      lambda       -0.7842416E-05
   maximum displ.:     0.1163956 α      in ANC's #1, #2, #3, ...

........................................................................
.............................. CYCLE   41 ..............................
........................................................................
   1    -83.3810105 -0.833810E+02  0.152E-02    3.23       0.0  T
   2    -83.3810105 -0.595490E-07  0.918E-03    3.23       1.4  T
   3    -83.3810102  0.351828E-06  0.240E-03    3.23       5.4  T
   4    -83.3810106 -0.396777E-06  0.391E-04    3.23      33.0  T
   5    -83.3810106 -0.259406E-08  0.224E-04    3.23      57.6  T
     SCC iter.                  ...        0 min,  0.014 sec
     gradient                   ...        0 min,  0.028 sec
 * total energy  :   -82.3026266 Eh     change       -0.1012594E-04 Eh
   gradient norm :     0.0002950 Eh/α   predicted    -0.3969933E-05 ( -60.79%)
   displ. norm   :     0.1413669 α      lambda       -0.6162331E-05
   maximum displ.:     0.1010805 α      in ANC's #1, #2, #4, ...

........................................................................
.............................. CYCLE   42 ..............................
........................................................................
   1    -83.3809745 -0.833810E+02  0.134E-02    3.23       0.0  T
   2    -83.3809745 -0.457931E-07  0.803E-03    3.23       1.6  T
   3    -83.3809743  0.247631E-06  0.200E-03    3.23       6.5  T
   4    -83.3809746 -0.280837E-06  0.328E-04    3.23      39.4  T
   5    -83.3809746 -0.162056E-08  0.184E-04    3.23      70.3  T
     SCC iter.                  ...        0 min,  0.014 sec
     gradient                   ...        0 min,  0.029 sec
 * total energy  :   -82.3026347 Eh     change       -0.8159380E-05 Eh
   gradient norm :     0.0002905 Eh/α   predicted    -0.3110490E-05 ( -61.88%)
   displ. norm   :     0.1343620 α      lambda       -0.5883445E-05
   maximum displ.:     0.0964903 α      in ANC's #1, #2, #4, ...
 * RMSD in coord.:     0.3453101 α      energy gain  -0.3731981E-03 Eh

generating ANC from model Hessian ...
Using Lindh-Hessian (1995)
 Shifting diagonal of input Hessian by    9.9025736876568130E-003
 Lowest  eigenvalues of input Hessian
    0.000000    0.000000    0.000000    0.000000    0.000000    0.000000
    0.010000    0.010030    0.010089    0.010183    0.010906    0.011730
    0.012323    0.013172    0.013216    0.013431    0.014769    0.015108
 Highest eigenvalues
    1.726605    1.880234    1.911490    1.918008    8.660641    8.821521


........................................................................
.............................. CYCLE   43 ..............................
........................................................................
   1    -83.3809410 -0.833809E+02  0.126E-02    3.23       0.0  T
   2    -83.3809411 -0.343248E-07  0.758E-03    3.23       1.7  T
   3    -83.3809409  0.160093E-06  0.165E-03    3.23       7.8  T
   4    -83.3809411 -0.182518E-06  0.307E-04    3.23      42.0  T
   5    -83.3809411 -0.133957E-08  0.173E-04    3.23      74.5  T
     SCC iter.                  ...        0 min,  0.031 sec
     gradient                   ...        0 min,  0.028 sec
 * total energy  :   -82.3026425 Eh     change       -0.7808727E-05 Eh
   gradient norm :     0.0002935 Eh/α   predicted     0.0000000E+00 (-100.00%)
   displ. norm   :     0.0159786 α      lambda       -0.1530361E-05
   maximum displ.:     0.0092037 α      in ANC's #1, #4, #3, ...

........................................................................
.............................. CYCLE   44 ..............................
........................................................................
   1    -83.3810790 -0.833811E+02  0.254E-03    3.23       0.0  T
   2    -83.3810790 -0.157013E-08  0.151E-03    3.23       8.5  T
   3    -83.3810789  0.163618E-07  0.514E-04    3.23      25.1  T
   4    -83.3810790 -0.176191E-07  0.752E-05    3.23     171.7  T
     SCC iter.                  ...        0 min,  0.011 sec
     gradient                   ...        0 min,  0.028 sec
 * total energy  :   -82.3026447 Eh     change       -0.2126681E-05 Eh
   gradient norm :     0.0002707 Eh/α   predicted    -0.8002465E-06 ( -62.37%)
   displ. norm   :     0.0678117 α      lambda       -0.5545282E-05
   maximum displ.:     0.0365075 α      in ANC's #1, #4, #3, ...

   *** GEOMETRY OPTIMIZATION CONVERGED AFTER 44 ITERATIONS ***

------------------------------------------------------------------------
 total energy gain   :        -0.1770325 Eh     -111.0896 kcal/mol
 total RMSD          :         0.3688927 a0        0.1952 Å
 total power (kW/mol):       -10.5636068 (step) -200.0031 (real)
------------------------------------------------------------------------

 ANCopt (total)                0 d,  0 h,  0 min,  2.324 sec
 optimizer setup                ...        0 min,  0.000 sec (  0.004%)
 model hessian                  ...        0 min,  0.099 sec (  4.257%)
 ANC generation                 ...        0 min,  0.008 sec (  0.347%)
 coordinate transformation      ...        0 min,  0.001 sec (  0.028%)
 single point calculation       ...        0 min,  2.201 sec ( 94.702%)
 optimization log               ...        0 min,  0.009 sec (  0.384%)
 hessian update                 ...        0 min,  0.001 sec (  0.043%)
 rational function              ...        0 min,  0.004 sec (  0.157%)

================
 final structure:
================
60
 xtb: 6.5.0 (homebrew)
C            3.43175590669409      -37.82722038728365       15.97829887203754
C            3.69395816823659      -38.20417670309838       17.43479669613032
O            3.23758690468747      -37.15631850310641       18.28766360159862
C            2.87290490870051      -39.45188277256759       17.78519885640458
C            5.21185900978169      -38.34282973028589       17.82057955372906
C            5.72283396575149      -39.77872511485158       17.91728949111189
C            6.13901635329500      -37.54253593806394       16.89668364905031
O            5.27738120608775      -37.72747360477820       19.10619439489482
B            4.14764329497629      -36.97821703615098       19.29544633348413
C            3.91953751583637      -36.04133308391548       20.51446598344347
C            4.94978916345231      -35.81136321463571       21.37977996047069
C            5.00341548835469      -34.89807633133957       22.45502851920318
H            5.95304937119648      -34.79259682161930       22.95920348399019
C            3.84082777085711      -34.19923939835600       23.10458236393735
H            4.07512313051623      -33.84539733132181       24.10544851174315
C            2.48168201834305      -34.80882065628904       23.08511392858079
B            1.71354902408940      -34.87081286343283       24.44259260190467
O            2.22110057444790      -34.39335523509218       25.62034141747601
C            1.35546053456471      -34.78406223382765       26.68528763010003
C            1.21192311549572      -33.63108131093483       27.67609376332208
C            2.02710859865053      -35.97035066376401       27.38886348411484
C            0.03194594688187      -35.18592985421574       25.93797221675135
C           -0.98899459358400      -34.04280775317487       25.87572921590103
C           -0.65504302509142      -36.43997509437827       26.47410303813921
O            0.47407968460808      -35.42213953734662       24.60126976148615
C            1.94546653722165      -35.32039753618473       21.97621284984879
C            2.57348241214872      -35.36666720688231       20.62571028822495
H            1.88441463759510      -35.83272324230875       19.92105822605741
C            3.09539986728076      -34.09064186674026       20.05313455291216
C            3.84258024077208      -33.17173627441397       20.70347791420644
C            4.31109069107212      -33.25700386543773       22.03836798656544
H            4.97917069228336      -32.47504583621179       22.36956853531953
H            2.35801441602780      -37.76974482473838       15.81748254008863
H            3.84686211852849      -38.58103070598084       15.31474714960061
H            3.85947379184977      -36.85891697408383       15.73949607007567
H            1.81923564469985      -39.22317600852445       17.64187678317445
H            3.01988740219162      -39.71638027395586       18.82938048561959
H            3.14186030023023      -40.29097312061500       17.15070380230521
H            5.59858181648769      -40.28727124807114       16.96501764346858
H            5.20150017703643      -40.32866992009286       18.69394548673707
H            6.77984715896131      -39.75954212447292       18.17084187169727
H            6.17616610643538      -37.97854387679035       15.90288489708382
H            7.13916581423053      -37.54833447277991       17.32403063671709
H            5.80762371057093      -36.50904083099195       16.83459767361815
H            5.88437090626868      -36.30585290635960       21.14290573322728
H            2.17455695067703      -33.45003492773620       28.14792862751396
H            0.48630643856919      -33.88430361537577       28.44427005491917
H            0.90629779803304      -32.71844175645450       27.17488657091897
H            3.00870868844800      -35.65520946281665       27.73552243629091
H            2.16634134030563      -36.79103325705188       26.68963076475213
H            1.44231065209263      -36.30557224224091       28.24007969897449
H           -1.40363570990255      -33.83252011649424       26.85706573998951
H           -1.79413618676974      -34.33616227155679       25.20614616798803
H           -0.52623517488966      -33.14654693536402       25.47055302287680
H           -0.92445023926589      -36.30436804069638       27.51808149171795
H           -0.01561578213996      -37.31087291202401       26.37390925354783
H           -1.55912519508279      -36.61857810507939       25.89743009766818
H            0.95878706655736      -35.75707728599380       22.05022480829546
H            2.90208653655884      -33.94176722522946       18.99992341071180
H            4.22785433808360      -32.33607755641071       20.13062939827908

 Bond Distances (Angstroems)
 ---------------------------
C1-C2=1.5272         C1-H33=1.0872        C1-H34=1.0867        C1-H35=1.0852        C2-C1=1.5272         C2-O3=1.4261         
C2-C4=1.5342         C2-C5=1.5723         O3-C2=1.4261         O3-B9=1.3695         C4-C2=1.5342         C4-H36=1.0877        
C4-H37=1.0871        C4-H38=1.0858        C5-C2=1.5723         C5-C6=1.5272         C5-C7=1.5342         C5-O8=1.4268         
C6-C5=1.5272         C6-H39=1.0867        C6-H40=1.0851        C6-H41=1.0872        C7-C5=1.5342         C7-H42=1.0859        
C7-H43=1.0876        C7-H44=1.0871        O8-C5=1.4268         O8-B9=1.3688         B9-O3=1.3695         B9-O8=1.3688         
B9-C10=1.5543        C10-B9=1.5543        C10-C11=1.3649       C10-C27=1.5098       C11-C10=1.3649       C11-C12=1.4118       
C11-H45=1.0835       C12-C11=1.4118       C12-H13=1.0803       C12-C14=1.5040       C12-C31=1.8292       H13-C12=1.0803       
C14-C12=1.5040       C14-H15=1.0871       C14-C16=1.4897       C14-C31=1.4986       H15-C14=1.0871       C16-C14=1.4897       
C16-B17=1.5610       C16-C26=1.3338       B17-C16=1.5610       B17-O18=1.3685       B17-O25=1.3658       O18-B17=1.3685       
O18-C19=1.4269       C19-O18=1.4269       C19-C20=1.5270       C19-C21=1.5341       C19-C22=1.5722       C20-C19=1.5270       
C20-H46=1.0872       C20-H47=1.0866       C20-H48=1.0851       C21-C19=1.5341       C21-H49=1.0877       C21-H50=1.0871       
C21-H51=1.0858       C22-C19=1.5722       C22-C23=1.5339       C22-C24=1.5271       C22-O25=1.4276       C23-C22=1.5339       
C23-H52=1.0859       C23-H53=1.0875       C23-H54=1.0870       C24-C22=1.5271       C24-H55=1.0867       C24-H56=1.0851       
C24-H57=1.0871       O25-B17=1.3658       O25-C22=1.4276       C26-C16=1.3338       C26-C27=1.4901       C26-H58=1.0815       
C27-C10=1.5098       C27-C26=1.4901       C27-H28=1.0902       C27-C29=1.4928       H28-C27=1.0902       C29-C27=1.4928       
C29-C30=1.3512       C29-H59=1.0811       C30-C29=1.3512       C30-C31=1.4173       C30-H60=1.0839       C31-C12=1.8292       
C31-C14=1.4986       C31-C30=1.4173       C31-H32=1.0805       H32-C31=1.0805       H33-C1=1.0872        H34-C1=1.0867        
H35-C1=1.0852        H36-C4=1.0877        H37-C4=1.0871        H38-C4=1.0858        H39-C6=1.0867        H40-C6=1.0851        
H41-C6=1.0872        H42-C7=1.0859        H43-C7=1.0876        H44-C7=1.0871        H45-C11=1.0835       H46-C20=1.0872       
H47-C20=1.0866       H48-C20=1.0851       H49-C21=1.0877       H50-C21=1.0871       H51-C21=1.0858       H52-C23=1.0859       
H53-C23=1.0875       H54-C23=1.0870       H55-C24=1.0867       H56-C24=1.0851       H57-C24=1.0871       H58-C26=1.0815       
H59-C29=1.0811       H60-C30=1.0839       
 C  H  Rav=1.0858 sigma=0.0022  Rmin=1.0803  Rmax=1.0902    32
 C  B  Rav=1.5576 sigma=0.0033  Rmin=1.5543  Rmax=1.5610     2
 C  C  Rav=1.5037 sigma=0.0975  Rmin=1.3338  Rmax=1.8292    22
 O  B  Rav=1.3681 sigma=0.0014  Rmin=1.3658  Rmax=1.3695     4
 O  C  Rav=1.4268 sigma=0.0005  Rmin=1.4261  Rmax=1.4276     4

 selected bond angles (degree)
 --------------------
H33-C1-C2=108.89               H34-C1-C2=110.22               H34-C1-H33=108.88              H35-C1-C2=111.25               
H35-C1-H33=108.03              H35-C1-H34=109.51              O3-C2-C1=109.52                C4-C2-C1=109.07                
C4-C2-O3=106.84                C5-C2-C1=114.93                C5-C2-O3=103.12                C5-C2-C4=112.89                
B9-O3-C2=108.84                H36-C4-C2=108.50               H37-C4-C2=110.17               H37-C4-H36=107.98              
H38-C4-C2=111.25               H38-C4-H36=108.99              H38-C4-H37=109.86              C6-C5-C2=114.93                
C7-C5-C2=112.93                C7-C5-C6=109.05                O8-C5-C2=103.14                O8-C5-C6=109.46                
O8-C5-C7=106.85                H39-C6-C5=110.26               H40-C6-C5=111.17               H40-C6-H39=109.58              
H41-C6-C5=108.87               H41-C6-H39=108.89              H41-C6-H40=108.01              H42-C7-C5=111.25               
H43-C7-C5=108.44               H43-C7-H42=109.03              H44-C7-C5=110.25               H44-C7-H42=109.87              
H44-C7-H43=107.93              B9-O8-C5=108.83                O8-B9-O3=112.06                C10-B9-O3=123.92               
C10-B9-O8=124.02               C11-C10-B9=119.21              C27-C10-B9=117.26              C27-C10-C11=123.43             

 selected dihedral angles (degree)
 ---------------------------------
O3-C2-C1-H33=294.83           O3-C2-C1-H34=175.46           O3-C2-C1-H35= 53.79           C4-C2-C1-H33= 51.43           
C4-C2-C1-H34=292.06           C4-C2-C1-H35=170.38           C5-C2-C1-H33=179.34           C5-C2-C1-H34= 59.97           
C5-C2-C1-H35=298.30           B9-O3-C2-C1=220.74            B9-O3-C2-C4=102.74            B9-O3-C2-C5=343.54            
H36-C4-C2-C1=299.96           H36-C4-C2-O3= 58.25           H36-C4-C2-C5=170.91           H37-C4-C2-C1=181.94           
H37-C4-C2-O3=300.23           H37-C4-C2-C5= 52.89           H38-C4-C2-C1= 59.85           H38-C4-C2-O3=178.14           
H38-C4-C2-C5=290.80           C6-C5-C2-C1=257.91            C6-C5-C2-O3=138.79            C6-C5-C2-C4= 23.87            
C7-C5-C2-C1= 23.89            C7-C5-C2-O3=264.77            C7-C5-C2-C4=149.85            O8-C5-C2-C1=138.85            
O8-C5-C2-O3= 19.73            O8-C5-C2-C4=264.81            H39-C6-C5-C2= 59.63           H39-C6-C5-C7=291.68           
H39-C6-C5-O8=175.11           H40-C6-C5-C2=297.90           H40-C6-C5-C7=169.94           H40-C6-C5-O8= 53.37           
H41-C6-C5-C2=179.04           H41-C6-C5-C7= 51.08           H41-C6-C5-O8=294.51           H42-C7-C5-C2=290.27           
H42-C7-C5-C6= 59.34           H42-C7-C5-O8=177.55           H43-C7-C5-C2=170.38           H43-C7-C5-C6=299.45           
H43-C7-C5-O8= 57.66           H44-C7-C5-C2= 52.42           H44-C7-C5-C6=181.49           H44-C7-C5-O8=299.70           
B9-O8-C5-C2=343.68            B9-O8-C5-C6=220.90            B9-O8-C5-C7=102.95            O8-B9-O3-C2=  7.13            
C10-B9-O3-C2=187.46           O3-B9-O8-C5=  6.89            C10-B9-O8-C5=186.56           C11-C10-B9-O3=187.76          
C11-C10-B9-O8=  8.13          C27-C10-B9-O3=  4.22          C27-C10-B9-O8=184.59          
           -------------------------------------------------
          |                Final Singlepoint                |
           -------------------------------------------------

          ...................................................
          :                      SETUP                      :
          :.................................................:
          :  # basis functions                 144          :
          :  # atomic orbitals                 144          :
          :  # shells                           88          :
          :  # electrons                       150          :
          :  max. iterations                   250          :
          :  Hamiltonian                  GFN2-xTB          :
          :  restarted?                      false          :
          :  GBSA solvation                  false          :
          :  PC potential                    false          :
          :  electronic temp.          300.0000000     K    :
          :  accuracy                    1.0000000          :
          :  -> integral cutoff          0.2500000E+02      :
          :  -> integral neglect         0.1000000E-07      :
          :  -> SCF convergence          0.1000000E-05 Eh   :
          :  -> wf. convergence          0.1000000E-03 e    :
          :  Broyden damping             0.4000000          :
          ...................................................

 iter      E             dE          RMSdq      gap      omega  full diag
   1    -83.3810790 -0.833811E+02  0.290E-05    3.23       0.0  T
   2    -83.3810790 -0.396483E-11  0.177E-05    3.23     728.3  T
   3    -83.3810790  0.511591E-12  0.122E-05    3.23    1055.0  T

   *** convergence criteria satisfied after 3 iterations ***

         #    Occupation            Energy/Eh            Energy/eV
      -------------------------------------------------------------
         1        2.0000           -0.6878379             -18.7170
       ...           ...                  ...                  ...
        69        2.0000           -0.4059188             -11.0456
        70        2.0000           -0.3974968             -10.8164
        71        2.0000           -0.3958074             -10.7705
        72        2.0000           -0.3936265             -10.7111
        73        2.0000           -0.3866643             -10.5217
        74        2.0000           -0.3502493              -9.5308
        75        2.0000           -0.3468891              -9.4393 (HOMO)
        76                         -0.2282452              -6.2109 (LUMO)
        77                         -0.2141888              -5.8284
        78                         -0.1898196              -5.1653
        79                         -0.1121672              -3.0522
        80                         -0.0975488              -2.6544
       ...                                ...                  ...
       144                          0.6886082              18.7380
      -------------------------------------------------------------
                  HL-Gap            0.1186439 Eh            3.2285 eV
             Fermi-level           -0.2875671 Eh           -7.8251 eV

 SCC (total)                   0 d,  0 h,  0 min,  0.043 sec
 SCC setup                      ...        0 min,  0.000 sec (  0.536%)
 Dispersion                     ...        0 min,  0.000 sec (  0.855%)
 classical contributions        ...        0 min,  0.000 sec (  0.400%)
 integral evaluation            ...        0 min,  0.006 sec ( 13.881%)
 iterations                     ...        0 min,  0.009 sec ( 19.668%)
 molecular gradient             ...        0 min,  0.028 sec ( 63.863%)
 printout                       ...        0 min,  0.000 sec (  0.781%)

         :::::::::::::::::::::::::::::::::::::::::::::::::::::
         ::                     SUMMARY                     ::
         :::::::::::::::::::::::::::::::::::::::::::::::::::::
         :: total energy             -82.302644664243 Eh    ::
         :: gradient norm              0.000270268412 Eh/a0 ::
         :: HOMO-LUMO gap              3.228465911236 eV    ::
         ::.................................................::
         :: SCC energy               -83.381078963611 Eh    ::
         :: -> isotropic ES            0.147575084277 Eh    ::
         :: -> anisotropic ES          0.012216257232 Eh    ::
         :: -> anisotropic XC          0.026774725117 Eh    ::
         :: -> dispersion             -0.061662066456 Eh    ::
         :: repulsion energy           1.077622161163 Eh    ::
         :: add. restraining           0.000121643441 Eh    ::
         :: total charge              -0.000000000000 e     ::
         :::::::::::::::::::::::::::::::::::::::::::::::::::::

           -------------------------------------------------
          |                Property Printout                |
           -------------------------------------------------

    * Orbital Energies and Occupations

         #    Occupation            Energy/Eh            Energy/eV
      -------------------------------------------------------------
         1        2.0000           -0.6878379             -18.7170
       ...           ...                  ...                  ...
        63        2.0000           -0.4349838             -11.8365
        64        2.0000           -0.4315375             -11.7427
        65        2.0000           -0.4293341             -11.6828
        66        2.0000           -0.4201332             -11.4324
        67        2.0000           -0.4193789             -11.4119
        68        2.0000           -0.4143116             -11.2740
        69        2.0000           -0.4059188             -11.0456
        70        2.0000           -0.3974968             -10.8164
        71        2.0000           -0.3958074             -10.7705
        72        2.0000           -0.3936265             -10.7111
        73        2.0000           -0.3866643             -10.5217
        74        2.0000           -0.3502493              -9.5308
        75        2.0000           -0.3468891              -9.4393 (HOMO)
        76                         -0.2282452              -6.2109 (LUMO)
        77                         -0.2141888              -5.8284
        78                         -0.1898196              -5.1653
        79                         -0.1121672              -3.0522
        80                         -0.0975488              -2.6544
        81                         -0.0616277              -1.6770
        82                          0.0086054               0.2342
        83                          0.0118941               0.3237
        84                          0.0285756               0.7776
        85                          0.0301604               0.8207
        86                          0.0568001               1.5456
       ...                                ...                  ...
       144                          0.6886082              18.7380
      -------------------------------------------------------------
                  HL-Gap            0.1186439 Eh            3.2285 eV
             Fermi-level           -0.2875671 Eh           -7.8251 eV

     #   Z          covCN         q      C6AA      α(0)
     1   6 C        3.755    -0.117    22.789     6.807
     2   6 C        3.859     0.129    18.449     6.109
     3   8 O        1.638    -0.374    20.368     6.092
     4   6 C        3.755    -0.116    22.772     6.804
     5   6 C        3.859     0.129    18.448     6.108
     6   6 C        3.755    -0.117    22.799     6.808
     7   6 C        3.755    -0.115    22.766     6.803
     8   8 O        1.638    -0.375    20.375     6.093
     9   5 B        2.659     0.432    15.563     6.642
    10   6 C        3.048    -0.081    29.982     8.980
    11   6 C        2.893    -0.041    29.019     8.832
    12   6 C        3.689    -0.019    21.097     6.574
    13   1 H        0.926     0.031     2.572     2.508
    14   6 C        3.864    -0.010    20.716     6.472
    15   1 H        0.925     0.046     2.365     2.405
    16   6 C        2.863    -0.084    30.105     8.994
    17   5 B        2.661     0.432    15.560     6.640
    18   8 O        1.638    -0.373    20.340     6.088
    19   6 C        3.859     0.129    18.455     6.109
    20   6 C        3.755    -0.117    22.800     6.808
    21   6 C        3.755    -0.116    22.780     6.805
    22   6 C        3.860     0.129    18.456     6.110
    23   6 C        3.755    -0.117    22.787     6.806
    24   6 C        3.755    -0.118    22.808     6.810
    25   8 O        1.638    -0.369    20.275     6.078
    26   6 C        2.897    -0.025    28.633     8.773
    27   6 C        3.864    -0.014    20.776     6.482
    28   1 H        0.924     0.045     2.384     2.414
    29   6 C        3.075    -0.027    28.601     8.768
    30   6 C        2.888    -0.047    29.171     8.855
    31   6 C        3.691    -0.015    21.032     6.563
    32   1 H        0.926     0.031     2.570     2.507
    33   1 H        0.925     0.054     2.272     2.357
    34   1 H        0.925     0.039     2.462     2.454
    35   1 H        0.925     0.051     2.307     2.375
    36   1 H        0.925     0.052     2.299     2.371
    37   1 H        0.925     0.043     2.403     2.424
    38   1 H        0.925     0.042     2.426     2.436
    39   1 H        0.925     0.039     2.457     2.451
    40   1 H        0.925     0.052     2.297     2.370
    41   1 H        0.925     0.054     2.272     2.357
    42   1 H        0.925     0.042     2.421     2.433
    43   1 H        0.925     0.052     2.300     2.372
    44   1 H        0.925     0.043     2.411     2.428
    45   1 H        0.925     0.034     2.535     2.490
    46   1 H        0.925     0.054     2.270     2.356
    47   1 H        0.925     0.040     2.451     2.448
    48   1 H        0.925     0.052     2.295     2.369
    49   1 H        0.925     0.052     2.296     2.370
    50   1 H        0.925     0.044     2.398     2.422
    51   1 H        0.925     0.043     2.415     2.430
    52   1 H        0.925     0.043     2.412     2.429
    53   1 H        0.925     0.053     2.286     2.364
    54   1 H        0.925     0.044     2.397     2.421
    55   1 H        0.925     0.040     2.449     2.447
    56   1 H        0.925     0.052     2.293     2.368
    57   1 H        0.925     0.055     2.261     2.351
    58   1 H        0.925     0.037     2.483     2.464
    59   1 H        0.926     0.028     2.618     2.530
    60   1 H        0.925     0.022     2.700     2.569

 Mol. C6AA /au·bohr⁶  :      32816.127059
 Mol. C8AA /au·bohr⁸  :     759861.557514
 Mol. α(0) /au        :        273.306368


Wiberg/Mayer (AO) data.
largest (>0.10) Wiberg bond orders for each atom

 ---------------------------------------------------------------------------
     #   Z sym  total        # sym  WBO       # sym  WBO       # sym  WBO
 ---------------------------------------------------------------------------
     1   6 C    3.994 --     2 C    0.997    34 H    0.985    33 H    0.983
                            35 H    0.982
     2   6 C    3.944 --     1 C    0.997     4 C    0.990     3 O    0.954
                             5 C    0.936
     3   8 O    2.226 --     9 B    1.121     2 C    0.954
     4   6 C    3.994 --     2 C    0.990    38 H    0.984    37 H    0.984
                            36 H    0.983
     5   6 C    3.943 --     6 C    0.996     7 C    0.990     8 O    0.954
                             2 C    0.936
     6   6 C    3.994 --     5 C    0.996    39 H    0.985    41 H    0.983
                            40 H    0.982
     7   6 C    3.995 --     5 C    0.990    42 H    0.985    44 H    0.984
                            43 H    0.983
     8   8 O    2.226 --     9 B    1.122     5 C    0.954
     9   5 B    3.380 --     8 O    1.122     3 O    1.121    10 C    1.013
    10   6 C    3.961 --    11 C    1.600     9 B    1.013    27 C    0.945
                            29 C    0.170
    11   6 C    3.989 --    10 C    1.600    12 C    1.271    45 H    0.962
    12   6 C    3.943 --    11 C    1.271    13 H    0.974    14 C    0.935
                            31 C    0.591
    13   1 H    0.999 --    12 C    0.974
    14   6 C    3.974 --    16 C    1.016    15 H    0.967    31 C    0.949
                            12 C    0.935
    15   1 H    0.997 --    14 C    0.967
    16   6 C    3.977 --    26 C    1.840    14 C    1.016    17 B    0.998
    17   5 B    3.376 --    25 O    1.134    18 O    1.127    16 C    0.998
    18   8 O    2.232 --    17 B    1.127    19 C    0.953
    19   6 C    3.943 --    20 C    0.997    21 C    0.991    18 O    0.953
                            22 C    0.936
    20   6 C    3.994 --    19 C    0.997    47 H    0.984    46 H    0.983
                            48 H    0.982
    21   6 C    3.994 --    19 C    0.991    51 H    0.984    50 H    0.984
                            49 H    0.983
    22   6 C    3.942 --    24 C    0.996    23 C    0.991    25 O    0.952
                            19 C    0.936
    23   6 C    3.995 --    22 C    0.991    52 H    0.984    54 H    0.984
                            53 H    0.983
    24   6 C    3.994 --    22 C    0.996    55 H    0.984    57 H    0.983
                            56 H    0.982
    25   8 O    2.237 --    17 B    1.134    22 C    0.952
    26   6 C    3.987 --    16 C    1.840    27 C    1.011    58 H    0.967
    27   6 C    3.991 --    26 C    1.011    29 C    0.973    28 H    0.969
                            10 C    0.945
    28   1 H    0.998 --    27 C    0.969
    29   6 C    3.975 --    30 C    1.668    27 C    0.973    59 H    0.971
                            10 C    0.170
    30   6 C    3.988 --    29 C    1.668    31 C    1.243    60 H    0.964
    31   6 C    3.935 --    30 C    1.243    32 H    0.975    14 C    0.949
                            12 C    0.591
    32   1 H    0.999 --    31 C    0.975
    33   1 H    0.997 --     1 C    0.983
    34   1 H    0.998 --     1 C    0.985
    35   1 H    0.997 --     1 C    0.982
    36   1 H    0.997 --     4 C    0.983
    37   1 H    0.998 --     4 C    0.984
    38   1 H    0.998 --     4 C    0.984
    39   1 H    0.998 --     6 C    0.985
    40   1 H    0.997 --     6 C    0.982
    41   1 H    0.997 --     6 C    0.983
    42   1 H    0.998 --     7 C    0.985
    43   1 H    0.997 --     7 C    0.983
    44   1 H    0.998 --     7 C    0.984
    45   1 H    0.999 --    11 C    0.962
    46   1 H    0.997 --    20 C    0.983
    47   1 H    0.998 --    20 C    0.984
    48   1 H    0.997 --    20 C    0.982
    49   1 H    0.997 --    21 C    0.983
    50   1 H    0.998 --    21 C    0.984
    51   1 H    0.998 --    21 C    0.984
    52   1 H    0.998 --    23 C    0.984
    53   1 H    0.997 --    23 C    0.983
    54   1 H    0.998 --    23 C    0.984
    55   1 H    0.998 --    24 C    0.984
    56   1 H    0.997 --    24 C    0.982
    57   1 H    0.997 --    24 C    0.983
    58   1 H    0.998 --    26 C    0.967
    59   1 H    0.999 --    29 C    0.971
    60   1 H    0.999 --    30 C    0.964
 ---------------------------------------------------------------------------

Topologies differ in total number of bonds
Writing topology from bond orders to xtbtopo.mol

molecular dipole:
                 x           y           z       tot (Debye)
 q only:       -0.238      -0.370       0.234
   full:       -0.093      -0.434       0.160       1.199
molecular quadrupole (traceless):
                xx          xy          yy          xz          yz          zz
 q only:      -46.103      19.071      35.097     -24.599     -37.209      11.007
  q+dip:      -45.508       6.416      43.063     -16.146     -31.482       2.444
   full:      -46.395       5.112      44.829     -17.578     -32.787       1.567

           -------------------------------------------------
          |                Geometry Summary                 |
           -------------------------------------------------

      molecular mass/u    :      382.1099696
   center of mass at/Å    :        2.9466171     -35.9269259      21.8336577
  moments of inertia/u·Å² :        0.1256694E+04   0.6731104E+04   0.7079178E+04
rotational constants/cm⁻¹ :        0.1341427E-01   0.2504438E-02   0.2381298E-02

 * 58 selected distances

     #   Z          #   Z                                           value/Å
     1   6 C        2   6 C                                       1.5271648
     2   6 C        3   8 O                                       1.4260659
     2   6 C        4   6 C                                       1.5341711
     5   6 C        6   6 C                                       1.5271687
     5   6 C        7   6 C                                       1.5341691
     5   6 C        8   8 O                                       1.4268014
     3   8 O        9   5 B                                       1.3695069
     8   8 O        9   5 B                                       1.3687621
     9   5 B       10   6 C                                       1.5542822
    10   6 C       11   6 C                                       1.3649444
    11   6 C       12   6 C                                       1.4117820
    12   6 C       13   1 H                                       1.0803347 (min)
    12   6 C       14   6 C                                       1.5039627
    14   6 C       15   1 H                                       1.0871209
    16   6 C       17   5 B                                       1.5609677 (max)
    17   5 B       18   8 O                                       1.3684542
    18   8 O       19   6 C                                       1.4269182
    19   6 C       20   6 C                                       1.5269791
    19   6 C       21   6 C                                       1.5340830
    22   6 C       23   6 C                                       1.5339238
    22   6 C       24   6 C                                       1.5270953
    17   5 B       25   8 O                                       1.3658053
    22   6 C       25   8 O                                       1.4276033
    16   6 C       26   6 C                                       1.3337541
    27   6 C       28   1 H                                       1.0902098
    27   6 C       29   6 C                                       1.4928101
    29   6 C       30   6 C                                       1.3511524
    14   6 C       31   6 C                                       1.4985888
    30   6 C       31   6 C                                       1.4172877
    31   6 C       32   1 H                                       1.0805014
     1   6 C       33   1 H                                       1.0872379
     1   6 C       34   1 H                                       1.0866666
     1   6 C       35   1 H                                       1.0851641
     4   6 C       36   1 H                                       1.0876889
     4   6 C       37   1 H                                       1.0871423
     4   6 C       38   1 H                                       1.0858148
     6   6 C       39   1 H                                       1.0866829
     6   6 C       40   1 H                                       1.0850912
     6   6 C       41   1 H                                       1.0871678
     7   6 C       42   1 H                                       1.0858726
     7   6 C       43   1 H                                       1.0876388
     7   6 C       44   1 H                                       1.0871008
    11   6 C       45   1 H                                       1.0835464
    20   6 C       46   1 H                                       1.0872305
    20   6 C       47   1 H                                       1.0866168
    20   6 C       48   1 H                                       1.0851390
    21   6 C       49   1 H                                       1.0876697
    21   6 C       50   1 H                                       1.0871211
    21   6 C       51   1 H                                       1.0857861
    23   6 C       52   1 H                                       1.0858958
    23   6 C       53   1 H                                       1.0874978
    23   6 C       54   1 H                                       1.0870132
    24   6 C       55   1 H                                       1.0866742
    24   6 C       56   1 H                                       1.0850665
    24   6 C       57   1 H                                       1.0871134
    26   6 C       58   1 H                                       1.0815283
    29   6 C       59   1 H                                       1.0811048
    30   6 C       60   1 H                                       1.0839360

 * 5 distinct bonds (by element types)

   Z      Z             #   av. dist./Å        max./Å        min./Å
   1 H    6 C          32     1.0858242     1.0902098     1.0803347
   5 B    6 C           2     1.5576249     1.5609677     1.5542822
   6 C    6 C          16     1.4761898     1.5341711     1.3337541
   5 B    8 O           4     1.3681321     1.3695069     1.3658053
   6 C    8 O           4     1.4268472     1.4276033     1.4260659


optimized geometry written to: xtbopt.xyz


           -------------------------------------------------
          | TOTAL ENERGY              -82.302644664243 Eh   |
          | GRADIENT NORM               0.000270268412 Eh/α |
          | HOMO-LUMO GAP               3.228465911236 eV   |
           -------------------------------------------------

------------------------------------------------------------------------
 * finished run on 2022/07/09 at 18:33:08.447     
------------------------------------------------------------------------
 total:
 * wall-time:     0 d,  0 h,  0 min,  2.449 sec
 *  cpu-time:     0 d,  0 h,  0 min,  2.428 sec
 * ratio c/w:     0.991 speedup
 SCF:
 * wall-time:     0 d,  0 h,  0 min,  0.068 sec
 *  cpu-time:     0 d,  0 h,  0 min,  0.068 sec
 * ratio c/w:     1.000 speedup
 ANC optimizer:
 * wall-time:     0 d,  0 h,  0 min,  2.369 sec
 *  cpu-time:     0 d,  0 h,  0 min,  2.347 sec
 * ratio c/w:     0.991 speedup

