      -----------------------------------------------------------      
     |                   =====================                   |     
     |                           x T B                           |     
     |                   =====================                   |     
     |                         S. Grimme                         |     
     |          Mulliken Center for Theoretical Chemistry        |     
     |                    University of Bonn                     |     
      -----------------------------------------------------------      

   * xtb version 6.5.0 (homebrew) compiled by 'nhattrup@GPGGRP-SHANNON.CHEME.CMU.EDU' on 

   xtb is free software: you can redistribute it and/or modify it under
   the terms of the GNU Lesser General Public License as published by
   the Free Software Foundation, either version 3 of the License, or
   (at your option) any later version.
   
   xtb is distributed in the hope that it will be useful,
   but WITHOUT ANY WARRANTY; without even the implied warranty of
   MERCHANTABILITY or FITNESS FOR A PARTICULAR PURPOSE.  See the
   GNU Lesser General Public License for more details.
   
   Cite this work as:
   * C. Bannwarth, E. Caldeweyher, S. Ehlert, A. Hansen, P. Pracht,
     J. Seibert, S. Spicher, S. Grimme, WIREs Comput. Mol. Sci., 2020, 11,
     e01493. DOI: 10.1002/wcms.1493
   
   for GFN2-xTB:
   * C. Bannwarth, S. Ehlert and S. Grimme., J. Chem. Theory Comput., 2019,
     15, 1652-1671. DOI: 10.1021/acs.jctc.8b01176
   for GFN1-xTB:
   * S. Grimme, C. Bannwarth, P. Shushkov, J. Chem. Theory Comput., 2017,
     13, 1989-2009. DOI: 10.1021/acs.jctc.7b00118
   for GFN0-xTB:
   * P. Pracht, E. Caldeweyher, S. Ehlert, S. Grimme, ChemRxiv, 2019, preprint.
     DOI: 10.26434/chemrxiv.8326202.v1
   for GFN-FF:
   * S. Spicher and S. Grimme, Angew. Chem. Int. Ed., 2020, 59, 15665-15673.
     DOI: 10.1002/anie.202004239
   
   for ALPB and GBSA implicit solvation:
   * S. Ehlert, M. Stahn, S. Spicher, S. Grimme, J. Chem. Theory Comput.,
     2021, 17, 4250-4261. DOI: 10.1021/acs.jctc.1c00471
   
   for DFT-D4:
   * E. Caldeweyher, C. Bannwarth and S. Grimme, J. Chem. Phys., 2017,
     147, 034112. DOI: 10.1063/1.4993215
   * E. Caldeweyher, S. Ehlert, A. Hansen, H. Neugebauer, S. Spicher,
     C. Bannwarth and S. Grimme, J. Chem. Phys., 2019, 150, 154122.
     DOI: 10.1063/1.5090222
   * E. Caldeweyher, J.-M. Mewes, S. Ehlert and S. Grimme, Phys. Chem. Chem. Phys.
     2020, 22, 8499-8512. DOI: 10.1039/D0CP00502A
   
   for sTDA-xTB:
   * S. Grimme and C. Bannwarth, J. Chem. Phys., 2016, 145, 054103.
     DOI: 10.1063/1.4959605
   
   in the mass-spec context:
   * V. Asgeirsson, C. Bauer and S. Grimme, Chem. Sci., 2017, 8, 4879.
     DOI: 10.1039/c7sc00601b
   * J. Koopman and S. Grimme, ACS Omega 2019, 4, 12, 15120-15133.
     DOI: 10.1021/acsomega.9b02011
   
   for metadynamics refer to:
   * S. Grimme, J. Chem. Theory Comput., 2019, 155, 2847-2862
     DOI: 10.1021/acs.jctc.9b00143
   
   for SPH calculations refer to:
   * S. Spicher and S. Grimme, J. Chem. Theory Comput., 2021, 17, 1701-1714
     DOI: 10.1021/acs.jctc.0c01306
   
   with help from (in alphabetical order)
   P. Atkinson, C. Bannwarth, F. Bohle, G. Brandenburg, E. Caldeweyher
   M. Checinski, S. Dohm, S. Ehlert, S. Ehrlich, I. Gerasimov, C. Hölzer
   A. Katbashev, J. Koopman, C. Lavigne, S. Lehtola, F. März, M. Müller,
   F. Musil, H. Neugebauer, J. Pisarek, C. Plett, P. Pracht, F. Pultar,
   J. Seibert, P. Shushkov, S. Spicher, M. Stahn, M. Steiner, T. Strunk,
   J. Stückrath, T. Rose, and J. Unsleber
   
 * started run on 2022/07/09 at 18:32:56.769     

           -------------------------------------------------
          |                Calculation Setup                |
           -------------------------------------------------

          program call               : /opt/homebrew/bin/xtb bvl_bpin2_scan_2-1_xtb.xyz --chrg 0 --uhf 0 --opt --input xcontrol_bvl_bpin2_scan_2-1_xtb
          coordinate file            : bvl_bpin2_scan_2-1_xtb.xyz
          omp threads                :                     1

   ID    Z sym.   atoms
    1    6 C      1, 2, 4-7, 10-12, 14, 16, 19-24, 26, 27, 29-31
    2    8 O      3, 8, 18, 25
    3    5 B      9, 17
    4    1 H      13, 15, 28, 32-60
constraining bond 12 31 to    1.7222000 Å, actual value:    1.6071487 Å
constraining bond 10 29 to    2.3889000 Å, actual value:    2.4994423 Å

           -------------------------------------------------
          |                 G F N 2 - x T B                 |
           -------------------------------------------------

        Reference                      10.1021/acs.jctc.8b01176
      * Hamiltonian:
        H0-scaling (s, p, d)           1.850000    2.230000    2.230000
        zeta-weighting                 0.500000
      * Dispersion:
        s8                             2.700000
        a1                             0.520000
        a2                             5.000000
        s9                             5.000000
      * Repulsion:
        kExp                           1.500000    1.000000
        rExp                           1.000000
      * Coulomb:
        alpha                          2.000000
        third order                    shell-resolved
        anisotropic                    true
        a3                             3.000000
        a5                             4.000000
        cn-shift                       1.200000
        cn-exp                         4.000000
        max-rad                        5.000000


          ...................................................
          :                      SETUP                      :
          :.................................................:
          :  # basis functions                 144          :
          :  # atomic orbitals                 144          :
          :  # shells                           88          :
          :  # electrons                       150          :
          :  max. iterations                   250          :
          :  Hamiltonian                  GFN2-xTB          :
          :  restarted?                      false          :
          :  GBSA solvation                  false          :
          :  PC potential                    false          :
          :  electronic temp.          300.0000000     K    :
          :  accuracy                    1.0000000          :
          :  -> integral cutoff          0.2500000E+02      :
          :  -> integral neglect         0.1000000E-07      :
          :  -> SCF convergence          0.1000000E-05 Eh   :
          :  -> wf. convergence          0.1000000E-03 e    :
          :  Broyden damping             0.4000000          :
          ...................................................

 iter      E             dE          RMSdq      gap      omega  full diag
   1    -82.9692199 -0.829692E+02  0.468E+00    3.45       0.0  T
   2    -83.3494856 -0.380266E+00  0.288E+00    3.15       1.0  T
   3    -83.3615493 -0.120636E-01  0.138E+00    3.42       1.0  T
   4    -83.3824684 -0.209191E-01  0.462E-01    3.33       1.0  T
   5    -83.3947307 -0.122624E-01  0.201E-01    3.36       1.0  T
   6    -83.3959743 -0.124360E-02  0.115E-01    3.38       1.0  T
   7    -83.3962237 -0.249339E-03  0.307E-02    3.36       1.0  T
   8    -83.3962492 -0.255323E-04  0.116E-02    3.37       1.1  T
   9    -83.3962525 -0.330458E-05  0.539E-03    3.37       2.4  T
  10    -83.3962531 -0.599437E-06  0.255E-03    3.37       5.1  T
  11    -83.3962532 -0.147862E-06  0.543E-04    3.37      23.8  T
  12    -83.3962533 -0.825830E-08  0.248E-04    3.37      52.1  T

   *** convergence criteria satisfied after 12 iterations ***

         #    Occupation            Energy/Eh            Energy/eV
      -------------------------------------------------------------
         1        2.0000           -0.6883335             -18.7305
       ...           ...                  ...                  ...
        69        2.0000           -0.4059582             -11.0467
        70        2.0000           -0.3982940             -10.8381
        71        2.0000           -0.3963240             -10.7845
        72        2.0000           -0.3954207             -10.7599
        73        2.0000           -0.3891987             -10.5906
        74        2.0000           -0.3553405              -9.6693
        75        2.0000           -0.3467180              -9.4347 (HOMO)
        76                         -0.2230319              -6.0690 (LUMO)
        77                         -0.2153287              -5.8594
        78                         -0.1903279              -5.1791
        79                         -0.1026608              -2.7935
        80                         -0.0949060              -2.5825
       ...                                ...                  ...
       144                          0.6731088              18.3162
      -------------------------------------------------------------
                  HL-Gap            0.1236861 Eh            3.3657 eV
             Fermi-level           -0.2848750 Eh           -7.7518 eV

 SCC (total)                   0 d,  0 h,  0 min,  0.068 sec
 SCC setup                      ...        0 min,  0.000 sec (  0.401%)
 Dispersion                     ...        0 min,  0.000 sec (  0.638%)
 classical contributions        ...        0 min,  0.000 sec (  0.263%)
 integral evaluation            ...        0 min,  0.006 sec (  9.005%)
 iterations                     ...        0 min,  0.033 sec ( 48.719%)
 molecular gradient             ...        0 min,  0.028 sec ( 40.462%)
 printout                       ...        0 min,  0.000 sec (  0.504%)

         :::::::::::::::::::::::::::::::::::::::::::::::::::::
         ::                     SUMMARY                     ::
         :::::::::::::::::::::::::::::::::::::::::::::::::::::
         :: total energy             -82.137902696861 Eh    ::
         :: gradient norm              1.679574260933 Eh/a0 ::
         :: HOMO-LUMO gap              3.365668999498 eV    ::
         ::.................................................::
         :: SCC energy               -83.396253251091 Eh    ::
         :: -> isotropic ES            0.147287578421 Eh    ::
         :: -> anisotropic ES          0.012494430750 Eh    ::
         :: -> anisotropic XC          0.026865126641 Eh    ::
         :: -> dispersion             -0.061122525530 Eh    ::
         :: repulsion energy           1.075728011816 Eh    ::
         :: add. restraining           0.181812909032 Eh    ::
         :: total charge              -0.000000000000 e     ::
         :::::::::::::::::::::::::::::::::::::::::::::::::::::

      ----------------------------------------------------------- 
     |                   =====================                   |
     |                        A N C O P T                        |
     |                   =====================                   |
     |               Approximate Normal Coordinate               |
     |                Rational Function Optimizer                |
      ----------------------------------------------------------- 

          ...................................................
          :                      SETUP                      :
          :.................................................:
          :   optimization level            normal          :
          :   max. optcycles                   200          :
          :   ANC micro-cycles                  20          :
          :   degrees of freedom               174          :
          :.................................................:
          :   RF solver                   davidson          :
          :   write xtbopt.log                true          :
          :   linear?                        false          :
          :   energy convergence         0.5000000E-05 Eh   :
          :   grad. convergence          0.1000000E-02 Eh/α :
          :   maximium RF displ.         1.0000000          :
          :   Hlow (freq-cutoff)         0.1000000E-01      :
          :   Hmax (freq-cutoff)         5.0000000          :
          :   S6 in model hess.         20.0000000          :
          ...................................................

generating ANC from model Hessian ...
Using Lindh-Hessian (1995)
 Shifting diagonal of input Hessian by   0.23635064842013950     
 Lowest  eigenvalues of input Hessian
    0.010000    0.138071    0.000000    0.000000    0.000000    0.000000
    0.000000    0.000000    0.236439    0.236489    0.236589    0.237858
    0.238288    0.238900    0.239621    0.239705    0.241159    0.241492
 Highest eigenvalues
    1.947572    2.117722    2.128444    2.288220    8.976256    9.391077


........................................................................
.............................. CYCLE    1 ..............................
........................................................................
   1    -83.3962533 -0.833963E+02  0.123E-04    3.37       0.0  T
   2    -83.3962533 -0.708681E-09  0.847E-05    3.37     152.4  T
   3    -83.3962533 -0.409898E-09  0.273E-05    3.37     472.9  T
     SCC iter.                  ...        0 min,  0.009 sec
     gradient                   ...        0 min,  0.027 sec
 * total energy  :   -82.1379027 Eh     change       -0.2497444E-08 Eh
   gradient norm :     1.6795739 Eh/α   predicted     0.0000000E+00 (-100.00%)
   displ. norm   :     0.3110875 α      lambda       -0.5158445E+00
   maximum displ.:     0.2297978 α      in ANC's #174, #173, #127, ...

........................................................................
.............................. CYCLE    2 ..............................
........................................................................
   1    -83.3746299 -0.833746E+02  0.303E-01    3.00       0.0  T
   2    -83.3746148  0.150289E-04  0.208E-01    3.01       1.0  T
   3    -83.3739291  0.685728E-03  0.153E-01    3.01       1.0  T
   4    -83.3751064 -0.117727E-02  0.214E-02    3.01       1.0  T
   5    -83.3751302 -0.237932E-04  0.714E-03    3.01       1.8  T
   6    -83.3751320 -0.181404E-05  0.320E-03    3.01       4.0  T
   7    -83.3751321 -0.750970E-07  0.107E-03    3.01      12.1  T
   8    -83.3751321 -0.482517E-07  0.338E-04    3.01      38.2  T
   9    -83.3751321 -0.147416E-08  0.175E-04    3.01      73.9  T
     SCC iter.                  ...        0 min,  0.025 sec
     gradient                   ...        0 min,  0.028 sec
 * total energy  :   -82.2614038 Eh     change       -0.1235011E+00 Eh
   gradient norm :     0.8818558 Eh/α   predicted    -0.2829697E+00 ( 129.12%)
   displ. norm   :     0.1085203 α      lambda       -0.9215154E-01
   maximum displ.:     0.0802494 α      in ANC's #174, #173, #116, ...

........................................................................
.............................. CYCLE    3 ..............................
........................................................................
   1    -83.3850411 -0.833850E+02  0.109E-01    3.17       0.0  T
   2    -83.3850456 -0.448462E-05  0.792E-02    3.16       1.0  T
   3    -83.3850541 -0.850424E-05  0.526E-02    3.16       1.0  T
   4    -83.3851466 -0.925457E-04  0.102E-02    3.17       1.3  T
   5    -83.3851516 -0.496835E-05  0.308E-03    3.16       4.2  T
   6    -83.3851520 -0.385381E-06  0.131E-03    3.16       9.8  T
   7    -83.3851520 -0.180086E-07  0.424E-04    3.16      30.5  T
   8    -83.3851520 -0.707580E-08  0.124E-04    3.16     104.0  T
     SCC iter.                  ...        0 min,  0.022 sec
     gradient                   ...        0 min,  0.027 sec
 * total energy  :   -82.3087221 Eh     change       -0.4731831E-01 Eh
   gradient norm :     0.0328174 Eh/α   predicted    -0.4661955E-01 (  -1.48%)
   displ. norm   :     0.0398611 α      lambda       -0.8958374E-03
   maximum displ.:     0.0106552 α      in ANC's #106, #28, #36, ...

........................................................................
.............................. CYCLE    4 ..............................
........................................................................
   1    -83.3859442 -0.833859E+02  0.270E-02    3.18       0.0  T
   2    -83.3859458 -0.157220E-05  0.167E-02    3.18       1.0  T
   3    -83.3859394  0.638661E-05  0.116E-02    3.18       1.1  T
   4    -83.3859469 -0.744510E-05  0.233E-03    3.18       5.5  T
   5    -83.3859472 -0.307082E-06  0.501E-04    3.18      25.8  T
   6    -83.3859472 -0.466446E-08  0.296E-04    3.18      43.7  T
     SCC iter.                  ...        0 min,  0.017 sec
     gradient                   ...        0 min,  0.028 sec
 * total energy  :   -82.3094215 Eh     change       -0.6994311E-03 Eh
   gradient norm :     0.0187639 Eh/α   predicted    -0.4487728E-03 ( -35.84%)
   displ. norm   :     0.1187059 α      lambda       -0.1263343E-02
   maximum displ.:     0.0708337 α      in ANC's #1, #28, #36, ...

........................................................................
.............................. CYCLE    5 ..............................
........................................................................
   1    -83.3866219 -0.833866E+02  0.798E-02    3.19       0.0  T
   2    -83.3866334 -0.115229E-04  0.477E-02    3.19       1.0  T
   3    -83.3865998  0.335848E-04  0.312E-02    3.19       1.0  T
   4    -83.3866416 -0.418543E-04  0.728E-03    3.19       1.8  T
   5    -83.3866448 -0.314755E-05  0.140E-03    3.19       9.2  T
   6    -83.3866449 -0.991571E-07  0.601E-04    3.19      21.5  T
   7    -83.3866449 -0.189922E-08  0.256E-04    3.19      50.4  T
     SCC iter.                  ...        0 min,  0.019 sec
     gradient                   ...        0 min,  0.027 sec
 * total energy  :   -82.3097864 Eh     change       -0.3648807E-03 Eh
   gradient norm :     0.0245877 Eh/α   predicted    -0.6410050E-03 (  75.68%)
   displ. norm   :     0.3879216 α      lambda       -0.3124364E-02
   maximum displ.:     0.3236417 α      in ANC's #1, #28, #36, ...

........................................................................
.............................. CYCLE    6 ..............................
........................................................................
   1    -83.3805043 -0.833805E+02  0.259E-01    3.21       0.0  T
   2    -83.3806870 -0.182700E-03  0.150E-01    3.21       1.0  T
   3    -83.3805530  0.133995E-03  0.104E-01    3.21       1.0  T
   4    -83.3808591 -0.306119E-03  0.248E-02    3.22       1.0  T
   5    -83.3808977 -0.385509E-04  0.409E-03    3.21       3.2  T
   6    -83.3808984 -0.736116E-06  0.176E-03    3.21       7.3  T
   7    -83.3808984 -0.199947E-07  0.853E-04    3.21      15.1  T
   8    -83.3808984 -0.260190E-07  0.245E-04    3.21      52.8  T
     SCC iter.                  ...        0 min,  0.022 sec
     gradient                   ...        0 min,  0.028 sec
 * total energy  :   -82.3023277 Eh     change        0.7458748E-02 Eh
   gradient norm :     0.1407866 Eh/α   predicted    -0.1800776E-02 (-124.14%)
   displ. norm   :     0.2777909 α      lambda       -0.1666445E-01
   maximum displ.:     0.2330226 α      in ANC's #1, #28, #36, ...

........................................................................
.............................. CYCLE    7 ..............................
........................................................................
   1    -83.3874933 -0.833875E+02  0.191E-01    3.21       0.0  T
   2    -83.3875998 -0.106530E-03  0.111E-01    3.21       1.0  T
   3    -83.3875131  0.867551E-04  0.798E-02    3.21       1.0  T
   4    -83.3876953 -0.182193E-03  0.223E-02    3.21       1.0  T
   5    -83.3877264 -0.311218E-04  0.351E-03    3.21       3.7  T
   6    -83.3877269 -0.543552E-06  0.151E-03    3.21       8.5  T
   7    -83.3877270 -0.223784E-07  0.788E-04    3.21      16.4  T
   8    -83.3877270 -0.211419E-07  0.209E-04    3.21      61.7  T
     SCC iter.                  ...        0 min,  0.022 sec
     gradient                   ...        0 min,  0.028 sec
 * total energy  :   -82.3102621 Eh     change       -0.7934484E-02 Eh
   gradient norm :     0.0361165 Eh/α   predicted    -0.8935223E-02 (  12.61%)
   displ. norm   :     0.0276466 α      lambda       -0.7388245E-03
   maximum displ.:     0.0200645 α      in ANC's #1, #106, #116, ...

........................................................................
.............................. CYCLE    8 ..............................
........................................................................
   1    -83.3877933 -0.833878E+02  0.199E-02    3.19       0.0  T
   2    -83.3877944 -0.110297E-05  0.121E-02    3.19       1.1  T
   3    -83.3877933  0.110388E-05  0.672E-03    3.19       1.9  T
   4    -83.3877948 -0.150622E-05  0.170E-03    3.19       7.6  T
   5    -83.3877950 -0.171815E-06  0.495E-04    3.19      26.1  T
   6    -83.3877950 -0.113502E-07  0.185E-04    3.19      69.8  T
     SCC iter.                  ...        0 min,  0.016 sec
     gradient                   ...        0 min,  0.028 sec
 * total energy  :   -82.3104713 Eh     change       -0.2091749E-03 Eh
   gradient norm :     0.0128324 Eh/α   predicted    -0.1957408E-03 (  -6.42%)
   displ. norm   :     0.0375203 α      lambda       -0.4874126E-03
   maximum displ.:     0.0165340 α      in ANC's #29, #28, #36, ...

........................................................................
.............................. CYCLE    9 ..............................
........................................................................
   1    -83.3880423 -0.833880E+02  0.185E-02    3.19       0.0  T
   2    -83.3880424 -0.147747E-06  0.109E-02    3.19       1.2  T
   3    -83.3880420  0.380560E-06  0.272E-03    3.19       4.8  T
   4    -83.3880424 -0.400059E-06  0.737E-04    3.19      17.5  T
   5    -83.3880425 -0.344310E-07  0.239E-04    3.19      54.1  T
     SCC iter.                  ...        0 min,  0.014 sec
     gradient                   ...        0 min,  0.028 sec
 * total energy  :   -82.3106220 Eh     change       -0.1506298E-03 Eh
   gradient norm :     0.0089261 Eh/α   predicted    -0.8484607E-04 ( -43.67%)
   displ. norm   :     0.1717677 α      lambda       -0.2519259E-02
   maximum displ.:     0.0778802 α      in ANC's #29, #28, #36, ...

........................................................................
.............................. CYCLE   10 ..............................
........................................................................
   1    -83.3889730 -0.833890E+02  0.828E-02    3.19       0.0  T
   2    -83.3889755 -0.249890E-05  0.489E-02    3.19       1.0  T
   3    -83.3889741  0.139480E-05  0.619E-03    3.19       2.1  T
   4    -83.3889759 -0.178090E-05  0.189E-03    3.19       6.8  T
   5    -83.3889760 -0.122551E-06  0.894E-04    3.19      14.4  T
   6    -83.3889760 -0.115954E-07  0.467E-04    3.19      27.7  T
     SCC iter.                  ...        0 min,  0.016 sec
     gradient                   ...        0 min,  0.028 sec
 * total energy  :   -82.3110190 Eh     change       -0.3970927E-03 Eh
   gradient norm :     0.0114449 Eh/α   predicted    -0.3511983E-03 ( -11.56%)
   displ. norm   :     0.0771870 α      lambda       -0.6314961E-03
   maximum displ.:     0.0365431 α      in ANC's #28, #29, #36, ...

........................................................................
.............................. CYCLE   11 ..............................
........................................................................
   1    -83.3894895 -0.833895E+02  0.352E-02    3.19       0.0  T
   2    -83.3894899 -0.397225E-06  0.209E-02    3.19       1.0  T
   3    -83.3894877  0.223452E-05  0.605E-03    3.19       2.1  T
   4    -83.3894900 -0.235987E-05  0.135E-03    3.19       9.5  T
   5    -83.3894901 -0.977615E-07  0.374E-04    3.19      34.5  T
   6    -83.3894901 -0.877137E-09  0.200E-04    3.19      64.5  T
     SCC iter.                  ...        0 min,  0.016 sec
     gradient                   ...        0 min,  0.028 sec
 * total energy  :   -82.3111244 Eh     change       -0.1053478E-03 Eh
   gradient norm :     0.0085418 Eh/α   predicted    -0.6996557E-04 ( -33.59%)
   displ. norm   :     0.0802473 α      lambda       -0.8653595E-03
   maximum displ.:     0.0396463 α      in ANC's #28, #29, #36, ...

........................................................................
.............................. CYCLE   12 ..............................
........................................................................
   1    -83.3902281 -0.833902E+02  0.352E-02    3.20       0.0  T
   2    -83.3902285 -0.358220E-06  0.209E-02    3.20       1.0  T
   3    -83.3902249  0.364229E-05  0.780E-03    3.20       1.7  T
   4    -83.3902288 -0.389359E-05  0.114E-03    3.20      11.3  T
   5    -83.3902288 -0.697323E-07  0.366E-04    3.20      35.3  T
   6    -83.3902288 -0.152725E-08  0.198E-04    3.20      65.3  T
     SCC iter.                  ...        0 min,  0.016 sec
     gradient                   ...        0 min,  0.028 sec
 * total energy  :   -82.3112369 Eh     change       -0.1125591E-03 Eh
   gradient norm :     0.0048367 Eh/α   predicted    -0.7875800E-04 ( -30.03%)
   displ. norm   :     0.0883727 α      lambda       -0.7680618E-03
   maximum displ.:     0.0449295 α      in ANC's #28, #29, #8, ...

........................................................................
.............................. CYCLE   13 ..............................
........................................................................
   1    -83.3908603 -0.833909E+02  0.369E-02    3.20       0.0  T
   2    -83.3908606 -0.295866E-06  0.220E-02    3.20       1.0  T
   3    -83.3908553  0.528063E-05  0.944E-03    3.20       1.4  T
   4    -83.3908610 -0.568329E-05  0.932E-04    3.20      13.8  T
   5    -83.3908610 -0.412561E-07  0.414E-04    3.20      31.2  T
   6    -83.3908610 -0.329341E-08  0.224E-04    3.20      57.5  T
     SCC iter.                  ...        0 min,  0.016 sec
     gradient                   ...        0 min,  0.028 sec
 * total energy  :   -82.3113234 Eh     change       -0.8645910E-04 Eh
   gradient norm :     0.0066603 Eh/α   predicted    -0.5938023E-04 ( -31.32%)
   displ. norm   :     0.0379970 α      lambda       -0.5551335E-03
   maximum displ.:     0.0168770 α      in ANC's #28, #8, #43, ...

........................................................................
.............................. CYCLE   14 ..............................
........................................................................
   1    -83.3909999 -0.833910E+02  0.158E-02    3.20       0.0  T
   2    -83.3910000 -0.831376E-07  0.933E-03    3.20       1.4  T
   3    -83.3909995  0.514468E-06  0.325E-03    3.20       4.0  T
   4    -83.3910001 -0.562872E-06  0.502E-04    3.20      25.7  T
   5    -83.3910001 -0.146029E-07  0.234E-04    3.20      55.1  T
     SCC iter.                  ...        0 min,  0.014 sec
     gradient                   ...        0 min,  0.028 sec
 * total energy  :   -82.3113840 Eh     change       -0.6060370E-04 Eh
   gradient norm :     0.0059189 Eh/α   predicted    -0.3785948E-04 ( -37.53%)
   displ. norm   :     0.0578272 α      lambda       -0.9947246E-03
   maximum displ.:     0.0212794 α      in ANC's #28, #43, #8, ...

........................................................................
.............................. CYCLE   15 ..............................
........................................................................
   1    -83.3907013 -0.833907E+02  0.217E-02    3.19       0.0  T
   2    -83.3907016 -0.252738E-06  0.129E-02    3.19       1.0  T
   3    -83.3907007  0.920215E-06  0.448E-03    3.19       2.9  T
   4    -83.3907017 -0.105732E-05  0.700E-04    3.19      18.4  T
   5    -83.3907017 -0.213178E-07  0.394E-04    3.19      32.8  T
   6    -83.3907018 -0.512431E-08  0.141E-04    3.19      91.4  T
     SCC iter.                  ...        0 min,  0.016 sec
     gradient                   ...        0 min,  0.028 sec
 * total energy  :   -82.3114614 Eh     change       -0.7740656E-04 Eh
   gradient norm :     0.0039117 Eh/α   predicted    -0.6011833E-04 ( -22.33%)
   displ. norm   :     0.0322298 α      lambda       -0.4242188E-03
   maximum displ.:     0.0125630 α      in ANC's #28, #8, #43, ...

........................................................................
.............................. CYCLE   16 ..............................
........................................................................
   1    -83.3901855 -0.833902E+02  0.104E-02    3.19       0.0  T
   2    -83.3901855 -0.805602E-07  0.622E-03    3.19       2.1  T
   3    -83.3901852  0.306024E-06  0.239E-03    3.19       5.4  T
   4    -83.3901856 -0.347670E-06  0.440E-04    3.19      29.4  T
   5    -83.3901856 -0.704443E-08  0.212E-04    3.19      61.0  T
     SCC iter.                  ...        0 min,  0.014 sec
     gradient                   ...        0 min,  0.027 sec
 * total energy  :   -82.3114956 Eh     change       -0.3414415E-04 Eh
   gradient norm :     0.0031349 Eh/α   predicted    -0.2298485E-04 ( -32.68%)
   displ. norm   :     0.0367752 α      lambda       -0.4791982E-03
   maximum displ.:     0.0170496 α      in ANC's #28, #8, #37, ...

........................................................................
.............................. CYCLE   17 ..............................
........................................................................
   1    -83.3894709 -0.833895E+02  0.130E-02    3.19       0.0  T
   2    -83.3894710 -0.833354E-07  0.766E-03    3.19       1.7  T
   3    -83.3894705  0.449049E-06  0.292E-03    3.19       4.4  T
   4    -83.3894710 -0.503881E-06  0.433E-04    3.19      29.8  T
   5    -83.3894711 -0.474070E-08  0.211E-04    3.19      61.2  T
     SCC iter.                  ...        0 min,  0.014 sec
     gradient                   ...        0 min,  0.028 sec
 * total energy  :   -82.3115289 Eh     change       -0.3329439E-04 Eh
   gradient norm :     0.0028720 Eh/α   predicted    -0.2347923E-04 ( -29.48%)
   displ. norm   :     0.0378508 α      lambda       -0.4238208E-03
   maximum displ.:     0.0197996 α      in ANC's #28, #8, #16, ...

........................................................................
.............................. CYCLE   18 ..............................
........................................................................
   1    -83.3888818 -0.833889E+02  0.143E-02    3.19       0.0  T
   2    -83.3888818 -0.523605E-07  0.845E-03    3.19       1.5  T
   3    -83.3888816  0.221695E-06  0.208E-03    3.19       6.2  T
   4    -83.3888818 -0.246984E-06  0.378E-04    3.19      34.2  T
   5    -83.3888818 -0.379154E-08  0.175E-04    3.19      73.9  T
     SCC iter.                  ...        0 min,  0.014 sec
     gradient                   ...        0 min,  0.028 sec
 * total energy  :   -82.3115569 Eh     change       -0.2808176E-04 Eh
   gradient norm :     0.0031947 Eh/α   predicted    -0.1894729E-04 ( -32.53%)
   displ. norm   :     0.0472551 α      lambda       -0.5042042E-03
   maximum displ.:     0.0253091 α      in ANC's #28, #8, #16, ...

........................................................................
.............................. CYCLE   19 ..............................
........................................................................
   1    -83.3884202 -0.833884E+02  0.172E-02    3.19       0.0  T
   2    -83.3884202 -0.692797E-07  0.102E-02    3.19       1.3  T
   3    -83.3884202  0.304469E-07  0.953E-04    3.19      13.6  T
   4    -83.3884202 -0.403987E-07  0.410E-04    3.19      31.5  T
     SCC iter.                  ...        0 min,  0.011 sec
     gradient                   ...        0 min,  0.028 sec
 * total energy  :   -82.3115868 Eh     change       -0.2988407E-04 Eh
   gradient norm :     0.0032934 Eh/α   predicted    -0.2077086E-04 ( -30.50%)
   displ. norm   :     0.0485746 α      lambda       -0.4940658E-03
   maximum displ.:     0.0256943 α      in ANC's #28, #8, #14, ...

........................................................................
.............................. CYCLE   20 ..............................
........................................................................
   1    -83.3882309 -0.833882E+02  0.159E-02    3.19       0.0  T
   2    -83.3882310 -0.950699E-07  0.956E-03    3.19       1.3  T
   3    -83.3882308  0.264358E-06  0.221E-03    3.19       5.9  T
   4    -83.3882310 -0.288884E-06  0.483E-04    3.19      26.7  T
   5    -83.3882311 -0.908031E-08  0.242E-04    3.19      53.2  T
     SCC iter.                  ...        0 min,  0.014 sec
     gradient                   ...        0 min,  0.027 sec
 * total energy  :   -82.3116139 Eh     change       -0.2710865E-04 Eh
   gradient norm :     0.0027884 Eh/α   predicted    -0.1882332E-04 ( -30.56%)
   displ. norm   :     0.0465224 α      lambda       -0.5014412E-03
   maximum displ.:     0.0235222 α      in ANC's #28, #8, #29, ...
 * RMSD in coord.:     0.1090693 α      energy gain  -0.1737112E+00 Eh

generating ANC from model Hessian ...
Using Lindh-Hessian (1995)
 Shifting diagonal of input Hessian by    9.9235065111257844E-003
 Lowest  eigenvalues of input Hessian
    0.000000    0.000000    0.000000    0.000000    0.000000    0.000000
    0.010000    0.010023    0.010090    0.010109    0.011000    0.011664
    0.012102    0.013179    0.013273    0.013426    0.015060    0.015091
 Highest eigenvalues
    1.720098    1.894696    1.897471    1.934722    8.720089    8.961957


........................................................................
.............................. CYCLE   21 ..............................
........................................................................
   1    -83.3882595 -0.833883E+02  0.137E-02    3.20       0.0  T
   2    -83.3882596 -0.122618E-06  0.829E-03    3.20       1.6  T
   3    -83.3882590  0.545284E-06  0.331E-03    3.20       3.9  T
   4    -83.3882597 -0.609683E-06  0.464E-04    3.20      27.8  T
   5    -83.3882597 -0.756556E-08  0.231E-04    3.20      55.9  T
     SCC iter.                  ...        0 min,  0.014 sec
     gradient                   ...        0 min,  0.028 sec
 * total energy  :   -82.3116379 Eh     change       -0.2401297E-04 Eh
   gradient norm :     0.0024415 Eh/α   predicted     0.0000000E+00 (-100.00%)
   displ. norm   :     0.0632154 α      lambda       -0.7932972E-04
   maximum displ.:     0.0264919 α      in ANC's #2, #6, #10, ...

........................................................................
.............................. CYCLE   22 ..............................
........................................................................
   1    -83.3885296 -0.833885E+02  0.184E-02    3.20       0.0  T
   2    -83.3885296 -0.645009E-07  0.109E-02    3.20       1.2  T
   3    -83.3885292  0.385075E-06  0.282E-03    3.20       4.6  T
   4    -83.3885297 -0.431416E-06  0.403E-04    3.20      32.0  T
   5    -83.3885297 -0.307291E-08  0.263E-04    3.20      49.1  T
     SCC iter.                  ...        0 min,  0.014 sec
     gradient                   ...        0 min,  0.028 sec
 * total energy  :   -82.3116993 Eh     change       -0.6133910E-04 Eh
   gradient norm :     0.0012101 Eh/α   predicted    -0.4059542E-04 ( -33.82%)
   displ. norm   :     0.1782371 α      lambda       -0.7988464E-04
   maximum displ.:     0.0865555 α      in ANC's #2, #6, #10, ...

........................................................................
.............................. CYCLE   23 ..............................
........................................................................
   1    -83.3886999 -0.833887E+02  0.413E-02    3.21       0.0  T
   2    -83.3887001 -0.247354E-06  0.246E-02    3.21       1.0  T
   3    -83.3886992  0.954604E-06  0.453E-03    3.21       2.9  T
   4    -83.3887003 -0.109324E-05  0.805E-04    3.21      16.0  T
   5    -83.3887003 -0.641081E-08  0.433E-04    3.21      29.8  T
   6    -83.3887003 -0.188990E-09  0.231E-04    3.21      56.0  T
     SCC iter.                  ...        0 min,  0.017 sec
     gradient                   ...        0 min,  0.028 sec
 * total energy  :   -82.3117559 Eh     change       -0.5661631E-04 Eh
   gradient norm :     0.0036183 Eh/α   predicted    -0.4050794E-04 ( -28.45%)
   displ. norm   :     0.0443917 α      lambda       -0.2462462E-04
   maximum displ.:     0.0265277 α      in ANC's #2, #6, #3, ...

........................................................................
.............................. CYCLE   24 ..............................
........................................................................
   1    -83.3886453 -0.833886E+02  0.880E-03    3.21       0.0  T
   2    -83.3886453 -0.910988E-08  0.527E-03    3.21       2.4  T
   3    -83.3886451  0.202390E-06  0.178E-03    3.21       7.3  T
   4    -83.3886453 -0.218049E-06  0.208E-04    3.21      62.2  T
   5    -83.3886453 -0.119360E-08  0.118E-04    3.21     109.7  T
     SCC iter.                  ...        0 min,  0.014 sec
     gradient                   ...        0 min,  0.028 sec
 * total energy  :   -82.3117765 Eh     change       -0.2060682E-04 Eh
   gradient norm :     0.0018397 Eh/α   predicted    -0.1233763E-04 ( -40.13%)
   displ. norm   :     0.1816905 α      lambda       -0.5120051E-04
   maximum displ.:     0.1071371 α      in ANC's #2, #6, #3, ...

........................................................................
.............................. CYCLE   25 ..............................
........................................................................
   1    -83.3880634 -0.833881E+02  0.354E-02    3.21       0.0  T
   2    -83.3880636 -0.186035E-06  0.211E-02    3.21       1.0  T
   3    -83.3880635  0.753059E-07  0.161E-03    3.21       8.0  T
   4    -83.3880636 -0.105690E-06  0.830E-04    3.21      15.5  T
   5    -83.3880637 -0.259489E-07  0.435E-04    3.21      29.7  T
     SCC iter.                  ...        0 min,  0.014 sec
     gradient                   ...        0 min,  0.027 sec
 * total energy  :   -82.3118132 Eh     change       -0.3672824E-04 Eh
   gradient norm :     0.0036440 Eh/α   predicted    -0.2600980E-04 ( -29.18%)
   displ. norm   :     0.0520241 α      lambda       -0.1787338E-04
   maximum displ.:     0.0334652 α      in ANC's #2, #3, #6, ...

........................................................................
.............................. CYCLE   26 ..............................
........................................................................
   1    -83.3880434 -0.833880E+02  0.845E-03    3.21       0.0  T
   2    -83.3880434 -0.197862E-07  0.505E-03    3.21       2.6  T
   3    -83.3880433  0.962181E-07  0.129E-03    3.21      10.0  T
   4    -83.3880434 -0.101343E-06  0.332E-04    3.21      38.9  T
   5    -83.3880434 -0.568505E-08  0.113E-04    3.21     114.1  T
     SCC iter.                  ...        0 min,  0.014 sec
     gradient                   ...        0 min,  0.028 sec
 * total energy  :   -82.3118281 Eh     change       -0.1485869E-04 Eh
   gradient norm :     0.0020366 Eh/α   predicted    -0.8962245E-05 ( -39.68%)
   displ. norm   :     0.1100796 α      lambda       -0.3156331E-04
   maximum displ.:     0.0704466 α      in ANC's #2, #3, #6, ...

........................................................................
.............................. CYCLE   27 ..............................
........................................................................
   1    -83.3881478 -0.833881E+02  0.164E-02    3.21       0.0  T
   2    -83.3881478 -0.720388E-07  0.984E-03    3.21       1.3  T
   3    -83.3881470  0.832329E-06  0.359E-03    3.21       3.6  T
   4    -83.3881479 -0.892864E-06  0.588E-04    3.21      22.0  T
   5    -83.3881479 -0.149772E-07  0.224E-04    3.21      57.7  T
     SCC iter.                  ...        0 min,  0.014 sec
     gradient                   ...        0 min,  0.028 sec
 * total energy  :   -82.3118519 Eh     change       -0.2380069E-04 Eh
   gradient norm :     0.0032948 Eh/α   predicted    -0.1597924E-04 ( -32.86%)
   displ. norm   :     0.1148675 α      lambda       -0.2082320E-04
   maximum displ.:     0.0745431 α      in ANC's #2, #3, #4, ...

........................................................................
.............................. CYCLE   28 ..............................
........................................................................
   1    -83.3882475 -0.833882E+02  0.149E-02    3.21       0.0  T
   2    -83.3882476 -0.403142E-07  0.894E-03    3.21       1.4  T
   3    -83.3882471  0.461395E-06  0.266E-03    3.21       4.9  T
   4    -83.3882476 -0.498721E-06  0.422E-04    3.21      30.6  T
   5    -83.3882476 -0.548016E-08  0.214E-04    3.21      60.4  T
     SCC iter.                  ...        0 min,  0.014 sec
     gradient                   ...        0 min,  0.028 sec
 * total energy  :   -82.3118687 Eh     change       -0.1675527E-04 Eh
   gradient norm :     0.0023471 Eh/α   predicted    -0.1055036E-04 ( -37.03%)
   displ. norm   :     0.1035411 α      lambda       -0.1710953E-04
   maximum displ.:     0.0674147 α      in ANC's #2, #3, #4, ...

........................................................................
.............................. CYCLE   29 ..............................
........................................................................
   1    -83.3883569 -0.833884E+02  0.121E-02    3.21       0.0  T
   2    -83.3883569 -0.220043E-07  0.720E-03    3.21       1.8  T
   3    -83.3883569  0.406792E-07  0.956E-04    3.21      13.5  T
   4    -83.3883569 -0.499437E-07  0.262E-04    3.21      49.3  T
     SCC iter.                  ...        0 min,  0.011 sec
     gradient                   ...        0 min,  0.028 sec
 * total energy  :   -82.3118836 Eh     change       -0.1497845E-04 Eh
   gradient norm :     0.0013142 Eh/α   predicted    -0.8646711E-05 ( -42.27%)
   displ. norm   :     0.1813176 α      lambda       -0.2062807E-04
   maximum displ.:     0.1172817 α      in ANC's #2, #3, #4, ...

........................................................................
.............................. CYCLE   30 ..............................
........................................................................
   1    -83.3885099 -0.833885E+02  0.210E-02    3.21       0.0  T
   2    -83.3885100 -0.697830E-07  0.125E-02    3.21       1.0  T
   3    -83.3885098  0.123874E-06  0.169E-03    3.21       7.7  T
   4    -83.3885100 -0.143338E-06  0.517E-04    3.21      25.0  T
   5    -83.3885100 -0.868093E-08  0.267E-04    3.21      48.3  T
     SCC iter.                  ...        0 min,  0.014 sec
     gradient                   ...        0 min,  0.027 sec
 * total energy  :   -82.3119079 Eh     change       -0.2429818E-04 Eh
   gradient norm :     0.0021128 Eh/α   predicted    -0.1046734E-04 ( -56.92%)
   displ. norm   :     0.1079643 α      lambda       -0.1592766E-04
   maximum displ.:     0.0714805 α      in ANC's #2, #3, #4, ...

........................................................................
.............................. CYCLE   31 ..............................
........................................................................
   1    -83.3884729 -0.833885E+02  0.127E-02    3.21       0.0  T
   2    -83.3884729 -0.213207E-07  0.761E-03    3.21       1.7  T
   3    -83.3884726  0.343272E-06  0.230E-03    3.21       5.6  T
   4    -83.3884729 -0.369813E-06  0.265E-04    3.21      48.7  T
   5    -83.3884729 -0.151108E-08  0.139E-04    3.21      92.8  T
     SCC iter.                  ...        0 min,  0.014 sec
     gradient                   ...        0 min,  0.028 sec
 * total energy  :   -82.3119210 Eh     change       -0.1309870E-04 Eh
   gradient norm :     0.0028020 Eh/α   predicted    -0.8057234E-05 ( -38.49%)
   displ. norm   :     0.1273305 α      lambda       -0.1761327E-04
   maximum displ.:     0.0843123 α      in ANC's #2, #3, #4, ...

........................................................................
.............................. CYCLE   32 ..............................
........................................................................
   1    -83.3884724 -0.833885E+02  0.147E-02    3.21       0.0  T
   2    -83.3884724 -0.312276E-07  0.875E-03    3.21       1.5  T
   3    -83.3884721  0.307736E-06  0.218E-03    3.21       5.9  T
   4    -83.3884724 -0.331965E-06  0.329E-04    3.21      39.3  T
   5    -83.3884724 -0.351842E-08  0.156E-04    3.21      82.7  T
     SCC iter.                  ...        0 min,  0.014 sec
     gradient                   ...        0 min,  0.028 sec
 * total energy  :   -82.3119357 Eh     change       -0.1471275E-04 Eh
   gradient norm :     0.0012907 Eh/α   predicted    -0.8949880E-05 ( -39.17%)
   displ. norm   :     0.2096759 α      lambda       -0.1698353E-04
   maximum displ.:     0.1393788 α      in ANC's #2, #3, #1, ...

........................................................................
.............................. CYCLE   33 ..............................
........................................................................
   1    -83.3883579 -0.833884E+02  0.237E-02    3.21       0.0  T
   2    -83.3883579 -0.678093E-07  0.141E-02    3.21       1.0  T
   3    -83.3883574  0.560710E-06  0.296E-03    3.21       4.4  T
   4    -83.3883580 -0.608945E-06  0.470E-04    3.21      27.5  T
   5    -83.3883580 -0.625965E-08  0.231E-04    3.21      55.9  T
     SCC iter.                  ...        0 min,  0.014 sec
     gradient                   ...        0 min,  0.028 sec
 * total energy  :   -82.3119562 Eh     change       -0.2047141E-04 Eh
   gradient norm :     0.0013442 Eh/α   predicted    -0.8659134E-05 ( -57.70%)
   displ. norm   :     0.1925585 α      lambda       -0.1562509E-04
   maximum displ.:     0.1272404 α      in ANC's #2, #3, #1, ...

........................................................................
.............................. CYCLE   34 ..............................
........................................................................
   1    -83.3883814 -0.833884E+02  0.211E-02    3.21       0.0  T
   2    -83.3883814 -0.441873E-07  0.125E-02    3.21       1.0  T
   3    -83.3883814  0.554958E-07  0.119E-03    3.21      10.8  T
   4    -83.3883814 -0.731474E-07  0.350E-04    3.21      36.9  T
   5    -83.3883814 -0.200438E-08  0.189E-04    3.21      68.3  T
     SCC iter.                  ...        0 min,  0.014 sec
     gradient                   ...        0 min,  0.028 sec
 * total energy  :   -82.3119771 Eh     change       -0.2086126E-04 Eh
   gradient norm :     0.0010053 Eh/α   predicted    -0.7944111E-05 ( -61.92%)
   displ. norm   :     0.2905777 α      lambda       -0.2520890E-04
   maximum displ.:     0.1886149 α      in ANC's #2, #3, #1, ...

........................................................................
.............................. CYCLE   35 ..............................
........................................................................
   1    -83.3883137 -0.833883E+02  0.320E-02    3.21       0.0  T
   2    -83.3883138 -0.102498E-06  0.190E-02    3.21       1.0  T
   3    -83.3883134  0.439994E-06  0.291E-03    3.21       4.4  T
   4    -83.3883139 -0.500912E-06  0.580E-04    3.21      22.3  T
   5    -83.3883139 -0.506343E-08  0.347E-04    3.21      37.2  T
     SCC iter.                  ...        0 min,  0.014 sec
     gradient                   ...        0 min,  0.028 sec
 * total energy  :   -82.3120090 Eh     change       -0.3197447E-04 Eh
   gradient norm :     0.0008485 Eh/α   predicted    -0.1307826E-04 ( -59.10%)
   displ. norm   :     0.3997171 α      lambda       -0.2882555E-04
   maximum displ.:     0.2565330 α      in ANC's #2, #3, #1, ...

........................................................................
.............................. CYCLE   36 ..............................
........................................................................
   1    -83.3880326 -0.833880E+02  0.435E-02    3.21       0.0  T
   2    -83.3880328 -0.189062E-06  0.258E-02    3.21       1.0  T
   3    -83.3880320  0.870015E-06  0.413E-03    3.21       3.1  T
   4    -83.3880330 -0.992405E-06  0.765E-04    3.21      16.9  T
   5    -83.3880330 -0.621311E-08  0.458E-04    3.21      28.2  T
     SCC iter.                  ...        0 min,  0.014 sec
     gradient                   ...        0 min,  0.028 sec
 * total energy  :   -82.3120417 Eh     change       -0.3263941E-04 Eh
   gradient norm :     0.0008040 Eh/α   predicted    -0.1543792E-04 ( -52.70%)
   displ. norm   :     0.3300357 α      lambda       -0.1708043E-04
   maximum displ.:     0.2103193 α      in ANC's #2, #3, #1, ...

........................................................................
.............................. CYCLE   37 ..............................
........................................................................
   1    -83.3881708 -0.833882E+02  0.345E-02    3.21       0.0  T
   2    -83.3881709 -0.104190E-06  0.205E-02    3.21       1.0  T
   3    -83.3881704  0.473384E-06  0.317E-03    3.21       4.1  T
   4    -83.3881710 -0.550297E-06  0.563E-04    3.21      22.9  T
   5    -83.3881710 -0.113985E-08  0.295E-04    3.21      43.8  T
     SCC iter.                  ...        0 min,  0.016 sec
     gradient                   ...        0 min,  0.028 sec
 * total energy  :   -82.3120608 Eh     change       -0.1915698E-04 Eh
   gradient norm :     0.0006803 Eh/α   predicted    -0.8954135E-05 ( -53.26%)
   displ. norm   :     0.2486012 α      lambda       -0.1164972E-04
   maximum displ.:     0.1564923 α      in ANC's #2, #3, #1, ...

........................................................................
.............................. CYCLE   38 ..............................
........................................................................
   1    -83.3884532 -0.833885E+02  0.248E-02    3.21       0.0  T
   2    -83.3884532 -0.518412E-07  0.148E-02    3.21       1.0  T
   3    -83.3884531  0.147000E-06  0.179E-03    3.21       7.2  T
   4    -83.3884533 -0.178006E-06  0.416E-04    3.21      31.0  T
   5    -83.3884533 -0.826461E-09  0.229E-04    3.21      56.3  T
     SCC iter.                  ...        0 min,  0.014 sec
     gradient                   ...        0 min,  0.027 sec
 * total energy  :   -82.3120748 Eh     change       -0.1394513E-04 Eh
   gradient norm :     0.0021079 Eh/α   predicted    -0.5988361E-05 ( -57.06%)
   displ. norm   :     0.1740583 α      lambda       -0.1290699E-04
   maximum displ.:     0.1094971 α      in ANC's #2, #3, #1, ...

........................................................................
.............................. CYCLE   39 ..............................
........................................................................
   1    -83.3884964 -0.833885E+02  0.169E-02    3.21       0.0  T
   2    -83.3884965 -0.246696E-07  0.101E-02    3.21       1.3  T
   3    -83.3884964  0.983158E-07  0.145E-03    3.21       8.9  T
   4    -83.3884965 -0.116830E-06  0.281E-04    3.21      46.0  T
   5    -83.3884965 -0.150251E-09  0.133E-04    3.21      97.4  T
     SCC iter.                  ...        0 min,  0.013 sec
     gradient                   ...        0 min,  0.027 sec
 * total energy  :   -82.3120861 Eh     change       -0.1134765E-04 Eh
   gradient norm :     0.0010432 Eh/α   predicted    -0.6651091E-05 ( -41.39%)
   displ. norm   :     0.4280092 α      lambda       -0.2265899E-04
   maximum displ.:     0.2611323 α      in ANC's #2, #3, #1, ...

........................................................................
.............................. CYCLE   40 ..............................
........................................................................
   1    -83.3884075 -0.833884E+02  0.414E-02    3.21       0.0  T
   2    -83.3884077 -0.165643E-06  0.247E-02    3.21       1.0  T
   3    -83.3884073  0.437426E-06  0.297E-03    3.21       4.4  T
   4    -83.3884078 -0.536400E-06  0.733E-04    3.21      17.6  T
   5    -83.3884078  0.477726E-09  0.474E-04    3.21      27.2  T
     SCC iter.                  ...        0 min,  0.013 sec
     gradient                   ...        0 min,  0.026 sec
 * total energy  :   -82.3121115 Eh     change       -0.2532868E-04 Eh
   gradient norm :     0.0020195 Eh/α   predicted    -0.1225377E-04 ( -51.62%)
   displ. norm   :     0.1654520 α      lambda       -0.1222632E-04
   maximum displ.:     0.0956492 α      in ANC's #2, #3, #1, ...

........................................................................
.............................. CYCLE   41 ..............................
........................................................................
   1    -83.3884200 -0.833884E+02  0.160E-02    3.21       0.0  T
   2    -83.3884200 -0.317340E-07  0.953E-03    3.21       1.4  T
   3    -83.3884200  0.774200E-07  0.122E-03    3.21      10.6  T
   4    -83.3884201 -0.960092E-07  0.278E-04    3.21      46.4  T
   5    -83.3884201 -0.713669E-10  0.163E-04    3.21      79.1  T
     SCC iter.                  ...        0 min,  0.013 sec
     gradient                   ...        0 min,  0.027 sec
 * total energy  :   -82.3121221 Eh     change       -0.1066653E-04 Eh
   gradient norm :     0.0012893 Eh/α   predicted    -0.6284513E-05 ( -41.08%)
   displ. norm   :     0.2379285 α      lambda       -0.1492744E-04
   maximum displ.:     0.1331695 α      in ANC's #1, #2, #3, ...

........................................................................
.............................. CYCLE   42 ..............................
........................................................................
   1    -83.3887198 -0.833887E+02  0.246E-02    3.21       0.0  T
   2    -83.3887199 -0.113242E-06  0.147E-02    3.21       1.0  T
   3    -83.3887196  0.274919E-06  0.230E-03    3.21       5.6  T
   4    -83.3887199 -0.333011E-06  0.469E-04    3.21      27.5  T
   5    -83.3887199 -0.155126E-09  0.315E-04    3.21      41.0  T
     SCC iter.                  ...        0 min,  0.013 sec
     gradient                   ...        0 min,  0.026 sec
 * total energy  :   -82.3121397 Eh     change       -0.1753234E-04 Eh
   gradient norm :     0.0020288 Eh/α   predicted    -0.7653531E-05 ( -56.35%)
   displ. norm   :     0.1288389 α      lambda       -0.1122258E-04
   maximum displ.:     0.0747247 α      in ANC's #1, #2, #3, ...
 * RMSD in coord.:     0.4619412 α      energy gain  -0.5257300E-03 Eh

generating ANC from model Hessian ...
Using Lindh-Hessian (1995)
 Shifting diagonal of input Hessian by    9.9266307080586123E-003
 Lowest  eigenvalues of input Hessian
    0.000000    0.000000    0.000000    0.000000    0.000000    0.000000
    0.010000    0.010020    0.010088    0.010103    0.010907    0.011754
    0.012192    0.013160    0.013238    0.013348    0.014957    0.015131
 Highest eigenvalues
    1.723797    1.892455    1.898591    1.932720    8.705702    8.963941


........................................................................
.............................. CYCLE   43 ..............................
........................................................................
   1    -83.3883830 -0.833884E+02  0.132E-02    3.21       0.0  T
   2    -83.3883831 -0.309230E-07  0.789E-03    3.21       1.6  T
   3    -83.3883830  0.604613E-07  0.108E-03    3.21      11.9  T
   4    -83.3883831 -0.735849E-07  0.290E-04    3.21      44.5  T
   5    -83.3883831 -0.108548E-08  0.194E-04    3.21      66.5  T
     SCC iter.                  ...        0 min,  0.013 sec
     gradient                   ...        0 min,  0.026 sec
 * total energy  :   -82.3121494 Eh     change       -0.9727355E-05 Eh
   gradient norm :     0.0005363 Eh/α   predicted     0.0000000E+00 (-100.00%)
   displ. norm   :     0.0253644 α      lambda       -0.1488252E-05
   maximum displ.:     0.0146356 α      in ANC's #4, #1, #22, ...

........................................................................
.............................. CYCLE   44 ..............................
........................................................................
   1    -83.3884357 -0.833884E+02  0.369E-03    3.21       0.0  T
   2    -83.3884357 -0.551812E-08  0.220E-03    3.21       5.9  T
   3    -83.3884357  0.333469E-08  0.316E-04    3.21      40.8  T
   4    -83.3884357 -0.405004E-08  0.108E-04    3.21     119.3  T
     SCC iter.                  ...        0 min,  0.011 sec
     gradient                   ...        0 min,  0.027 sec
 * total energy  :   -82.3121548 Eh     change       -0.5448018E-05 Eh
   gradient norm :     0.0004947 Eh/α   predicted    -0.2042757E-05 ( -62.50%)
   displ. norm   :     0.1006632 α      lambda       -0.1327326E-04
   maximum displ.:     0.0548343 α      in ANC's #4, #1, #22, ...

........................................................................
.............................. CYCLE   45 ..............................
........................................................................
   1    -83.3884664 -0.833885E+02  0.146E-02    3.21       0.0  T
   2    -83.3884664 -0.358799E-07  0.871E-03    3.21       1.5  T
   3    -83.3884664  0.371391E-07  0.957E-04    3.21      13.5  T
   4    -83.3884664 -0.452974E-07  0.337E-04    3.21      38.3  T
     SCC iter.                  ...        0 min,  0.011 sec
     gradient                   ...        0 min,  0.026 sec
 * total energy  :   -82.3121684 Eh     change       -0.1356973E-04 Eh
   gradient norm :     0.0018359 Eh/α   predicted    -0.6667953E-05 ( -50.86%)
   displ. norm   :     0.0806664 α      lambda       -0.6271937E-05
   maximum displ.:     0.0474413 α      in ANC's #4, #1, #22, ...

........................................................................
.............................. CYCLE   46 ..............................
........................................................................
   1    -83.3884040 -0.833884E+02  0.109E-02    3.21       0.0  T
   2    -83.3884040 -0.143385E-07  0.649E-03    3.21       2.0  T
   3    -83.3884037  0.292229E-06  0.215E-03    3.21       6.0  T
   4    -83.3884040 -0.314916E-06  0.242E-04    3.21      53.3  T
   5    -83.3884040 -0.131162E-08  0.132E-04    3.21      97.6  T
     SCC iter.                  ...        0 min,  0.013 sec
     gradient                   ...        0 min,  0.026 sec
 * total energy  :   -82.3121734 Eh     change       -0.4947915E-05 Eh
   gradient norm :     0.0034434 Eh/α   predicted    -0.3145927E-05 ( -36.42%)
   displ. norm   :     0.0276586 α      lambda       -0.3204201E-05
   maximum displ.:     0.0176881 α      in ANC's #4, #1, #3, ...

........................................................................
.............................. CYCLE   47 ..............................
........................................................................
   1    -83.3884763 -0.833885E+02  0.383E-03    3.21       0.0  T
   2    -83.3884763 -0.282911E-08  0.227E-03    3.21       5.7  T
   3    -83.3884763  0.328104E-08  0.282E-04    3.21      45.7  T
   4    -83.3884763 -0.399346E-08  0.872E-05    3.21     148.1  T
     SCC iter.                  ...        0 min,  0.010 sec
     gradient                   ...        0 min,  0.026 sec
 * total energy  :   -82.3121759 Eh     change       -0.2522753E-05 Eh
   gradient norm :     0.0007073 Eh/α   predicted    -0.1614374E-05 ( -36.01%)
   displ. norm   :     0.0521811 α      lambda       -0.3823434E-05
   maximum displ.:     0.0336433 α      in ANC's #4, #1, #3, ...

   *** GEOMETRY OPTIMIZATION CONVERGED AFTER 47 ITERATIONS ***

------------------------------------------------------------------------
 total energy gain   :        -0.1742732 Eh     -109.3581 kcal/mol
 total RMSD          :         0.4886309 a0        0.2586 Å
 total power (kW/mol):        -9.7351952 (step) -188.3582 (real)
------------------------------------------------------------------------

 ANCopt (total)                0 d,  0 h,  0 min,  2.429 sec
 optimizer setup                ...        0 min,  0.000 sec (  0.004%)
 model hessian                  ...        0 min,  0.094 sec (  3.890%)
 ANC generation                 ...        0 min,  0.008 sec (  0.326%)
 coordinate transformation      ...        0 min,  0.001 sec (  0.030%)
 single point calculation       ...        0 min,  2.307 sec ( 94.979%)
 optimization log               ...        0 min,  0.011 sec (  0.453%)
 hessian update                 ...        0 min,  0.001 sec (  0.045%)
 rational function              ...        0 min,  0.005 sec (  0.192%)

================
 final structure:
================
60
 xtb: 6.5.0 (homebrew)
C            3.26550054925127      -38.06975705781330       16.16011457019704
C            3.60858898628996      -38.27886003384161       17.63328374396050
O            3.21283942062902      -37.13244842136077       18.38320686487477
C            2.79954090496495      -39.46492591488880       18.17422100486919
C            5.14398845008282      -38.39516389144917       17.94708779590617
C            5.65240523434545      -39.81925482609770       18.15972707447922
C            6.01958040848603      -37.70074800623574       16.89590864853669
O            5.28310207156871      -37.65334896465524       19.15797214518780
B            4.17511185599777      -36.86487471824987       19.31966760218193
C            4.02151339257462      -35.79932305095621       20.44079759044295
C            5.04488424616681      -35.56401062463920       21.28720149170802
C            5.11797428665097      -34.60913726014076       22.35840053531025
H            6.06248396827920      -34.55164973444342       22.87923233385697
C            3.92862169196071      -34.03682927424775       23.09930053289889
H            4.15163227457797      -33.76437658141096       24.12640615769276
C            2.58558567759790      -34.65770790260228       22.99772829788972
B            1.78972722000111      -34.84184775005154       24.32902781088271
O            2.27193320904931      -34.47748811249107       25.55667104260873
C            1.37962542116169      -34.95912191445861       26.56118575875150
C            1.22112999449844      -33.90272265436180       27.65210699259854
C            2.02669435635905      -36.21198823005533       27.16537568764235
C            0.07165280941177      -35.27856270994043       25.75003328048092
C           -0.93672561599534      -34.12277870324457       25.76542659858365
C           -0.63909290454049      -36.56776476259085       26.15589248822657
O            0.54511580582166      -35.39892663380498       24.40866097768344
C            2.06819237805629      -35.08213583804273       21.84060032942147
C            2.72483917835737      -35.01251063766922       20.49704934791006
H            2.04745535175533      -35.43094981949209       19.75066823452051
C            3.10895501866078      -33.62119295730901       20.08019928548255
C            3.87541376228206      -32.79124312304990       20.79120747638969
C            4.45096970839834      -33.05052582993285       22.08906148922838
H            5.09316194789417      -32.27641135967725       22.48352669690034
H            2.18448026002197      -38.02432786618955       16.05326042466375
H            3.64310434558649      -38.89720056930141       15.56538997058733
H            3.67948061870309      -37.13772016833462       15.78923773847585
H            1.74131660509365      -39.23166260955744       18.08053731563387
H            3.01707484634888      -39.61770757814520       19.22836984491550
H            3.01247285378179      -40.37287165086727       17.61790796860000
H            5.47049862045255      -40.41986958106455       17.27255573232412
H            5.17410092109947      -40.28249285404828       19.01650372121480
H            6.72241299706813      -39.78599210470951       18.34921873264065
H            5.99523154767562      -38.23275301818661       15.94961037051666
H            7.04334688325449      -37.67538069806072       17.26215134487415
H            5.68979418707334      -36.67486199557013       16.75178551831619
H            5.94938841314271      -36.13948494837717       21.12803235756988
H            2.17666069355617      -33.76823902717813       28.15306639137448
H            0.48373304014793      -34.22500653551616       28.38233049861205
H            0.92356865144709      -32.94687683789967       27.23347945116529
H            3.00350861253317      -35.94038846383632       27.55916414979078
H            2.17309681745525      -36.96620959988756       26.39626480699229
H            1.42152370088019      -36.61823878480664       27.97019990621909
H           -1.37176172325222      -33.99419282814519       26.75202635593642
H           -1.72890282702923      -34.34690106777207       25.05486951672147
H           -0.45559653187847      -33.20022354364651       25.45047737324323
H           -0.92131451001446      -36.52800004543801       27.20449121664398
H           -0.00898629595982      -37.43382446477668       25.98158667036570
H           -1.53729460687713      -36.67877509212797       25.55360125468604
H            1.08538909328587      -35.53258221819578       21.86919901459574
H            2.78072673056550      -33.31309948155460       19.09724071171884
H            4.14429499523786      -31.83348906742963       20.36029175427071

 Bond Distances (Angstroems)
 ---------------------------
C1-C2=1.5270         C1-H33=1.0872        C1-H34=1.0867        C1-H35=1.0852        C2-C1=1.5270         C2-O3=1.4259         
C2-C4=1.5343         C2-C5=1.5714         O3-C2=1.4259         O3-B9=1.3691         C4-C2=1.5343         C4-H36=1.0877        
C4-H37=1.0871        C4-H38=1.0859        C5-C2=1.5714         C5-C6=1.5270         C5-C7=1.5342         C5-O8=1.4268         
C6-C5=1.5270         C6-H39=1.0867        C6-H40=1.0851        C6-H41=1.0872        C7-C5=1.5342         C7-H42=1.0859        
C7-H43=1.0876        C7-H44=1.0872        O8-C5=1.4268         O8-B9=1.3695         B9-O3=1.3691         B9-O8=1.3695         
B9-C10=1.5543        C10-B9=1.5543        C10-C11=1.3487       C10-C27=1.5178       C11-C10=1.3487       C11-C12=1.4369       
C11-H45=1.0838       C12-C11=1.4369       C12-H13=1.0801       C12-C14=1.5136       C12-C31=1.7166       H13-C12=1.0801       
C14-C12=1.5136       C14-H15=1.0858       C14-C16=1.4831       C14-C31=1.5054       H15-C14=1.0858       C16-C14=1.4831       
C16-B17=1.5619       C16-C26=1.3367       B17-C16=1.5619       B17-O18=1.3684       B17-O25=1.3659       O18-B17=1.3684       
O18-C19=1.4273       C19-O18=1.4273       C19-C20=1.5268       C19-C21=1.5341       C19-C22=1.5719       C20-C19=1.5268       
C20-H46=1.0872       C20-H47=1.0867       C20-H48=1.0851       C21-C19=1.5341       C21-H49=1.0877       C21-H50=1.0871       
C21-H51=1.0858       C22-C19=1.5719       C22-C23=1.5339       C22-C24=1.5271       C22-O25=1.4276       C23-C22=1.5339       
C23-H52=1.0859       C23-H53=1.0875       C23-H54=1.0871       C24-C22=1.5271       C24-H55=1.0866       C24-H56=1.0851       
C24-H57=1.0871       O25-B17=1.3659       O25-C22=1.4276       C26-C16=1.3367       C26-C27=1.4971       C26-H58=1.0815       
C27-C10=1.5178       C27-C26=1.4971       C27-H28=1.0913       C27-C29=1.5024       H28-C27=1.0913       C29-C27=1.5024       
C29-C30=1.3348       C29-H59=1.0811       C30-C29=1.3348       C30-C31=1.4432       C30-H60=1.0841       C31-C12=1.7166       
C31-C14=1.5054       C31-C30=1.4432       C31-H32=1.0804       H32-C31=1.0804       H33-C1=1.0872        H34-C1=1.0867        
H35-C1=1.0852        H36-C4=1.0877        H37-C4=1.0871        H38-C4=1.0859        H39-C6=1.0867        H40-C6=1.0851        
H41-C6=1.0872        H42-C7=1.0859        H43-C7=1.0876        H44-C7=1.0872        H45-C11=1.0838       H46-C20=1.0872       
H47-C20=1.0867       H48-C20=1.0851       H49-C21=1.0877       H50-C21=1.0871       H51-C21=1.0858       H52-C23=1.0859       
H53-C23=1.0875       H54-C23=1.0871       H55-C24=1.0866       H56-C24=1.0851       H57-C24=1.0871       H58-C26=1.0815       
H59-C29=1.0811       H60-C30=1.0841       
 C  H  Rav=1.0858 sigma=0.0023  Rmin=1.0801  Rmax=1.0913    32
 C  B  Rav=1.5581 sigma=0.0038  Rmin=1.5543  Rmax=1.5619     2
 C  C  Rav=1.5011 sigma=0.0825  Rmin=1.3348  Rmax=1.7166    22
 O  B  Rav=1.3682 sigma=0.0014  Rmin=1.3659  Rmax=1.3695     4
 O  C  Rav=1.4269 sigma=0.0006  Rmin=1.4259  Rmax=1.4276     4

 selected bond angles (degree)
 --------------------
H33-C1-C2=108.90               H34-C1-C2=110.22               H34-C1-H33=108.88              H35-C1-C2=111.20               
H35-C1-H33=108.05              H35-C1-H34=109.53              O3-C2-C1=109.57                C4-C2-C1=109.12                
C4-C2-O3=106.84                C5-C2-C1=114.98                C5-C2-O3=103.04                C5-C2-C4=112.81                
B9-O3-C2=108.77                H36-C4-C2=108.47               H37-C4-C2=110.18               H37-C4-H36=107.96              
H38-C4-C2=111.24               H38-C4-H36=109.02              H38-C4-H37=109.88              C6-C5-C2=114.97                
C7-C5-C2=112.79                C7-C5-C6=109.12                O8-C5-C2=103.08                O8-C5-C6=109.53                
O8-C5-C7=106.89                H39-C6-C5=110.24               H40-C6-C5=111.18               H40-C6-H39=109.56              
H41-C6-C5=108.87               H41-C6-H39=108.90              H41-C6-H40=108.02              H42-C7-C5=111.26               
H43-C7-C5=108.48               H43-C7-H42=109.03              H44-C7-C5=110.17               H44-C7-H42=109.88              
H44-C7-H43=107.95              B9-O8-C5=108.70                O8-B9-O3=112.05                C10-B9-O3=123.91               
C10-B9-O8=124.04               C11-C10-B9=119.82              C27-C10-B9=117.81              C27-C10-C11=122.31             

 selected dihedral angles (degree)
 ---------------------------------
O3-C2-C1-H33=294.27           O3-C2-C1-H34=174.89           O3-C2-C1-H35= 53.22           C4-C2-C1-H33= 50.92           
C4-C2-C1-H34=291.55           C4-C2-C1-H35=169.88           C5-C2-C1-H33=178.81           C5-C2-C1-H34= 59.43           
C5-C2-C1-H35=297.76           B9-O3-C2-C1=220.02            B9-O3-C2-C4=101.93            B9-O3-C2-C5=342.86            
H36-C4-C2-C1=299.03           H36-C4-C2-O3= 57.41           H36-C4-C2-C5=169.93           H37-C4-C2-C1=181.05           
H37-C4-C2-O3=299.43           H37-C4-C2-C5= 51.95           H38-C4-C2-C1= 58.94           H38-C4-C2-O3=177.32           
H38-C4-C2-C5=289.84           C6-C5-C2-C1=258.87            C6-C5-C2-O3=139.72            C6-C5-C2-C4= 24.88            
C7-C5-C2-C1= 24.85            C7-C5-C2-O3=265.69            C7-C5-C2-C4=150.86            O8-C5-C2-C1=139.75            
O8-C5-C2-O3= 20.59            O8-C5-C2-C4=265.76            H39-C6-C5-C2= 59.49           H39-C6-C5-C7=291.65           
H39-C6-C5-O8=174.96           H40-C6-C5-C2=297.78           H40-C6-C5-C7=169.93           H40-C6-C5-O8= 53.24           
H41-C6-C5-C2=178.90           H41-C6-C5-C7= 51.05           H41-C6-C5-O8=294.36           H42-C7-C5-C2=290.44           
H42-C7-C5-C6= 59.51           H42-C7-C5-O8=177.86           H43-C7-C5-C2=170.52           H43-C7-C5-C6=299.58           
H43-C7-C5-O8= 57.94           H44-C7-C5-C2= 52.55           H44-C7-C5-C6=181.62           H44-C7-C5-O8=299.97           
B9-O8-C5-C2=342.95            B9-O8-C5-C6=220.12            B9-O8-C5-C7=102.03            O8-B9-O3-C2=  7.38            
C10-B9-O3-C2=187.85           O3-B9-O8-C5=  7.24            C10-B9-O8-C5=186.77           C11-C10-B9-O3=182.75          
C11-C10-B9-O8=  3.28          C27-C10-B9-O3=  0.07          C27-C10-B9-O8=180.59          
           -------------------------------------------------
          |                Final Singlepoint                |
           -------------------------------------------------

          ...................................................
          :                      SETUP                      :
          :.................................................:
          :  # basis functions                 144          :
          :  # atomic orbitals                 144          :
          :  # shells                           88          :
          :  # electrons                       150          :
          :  max. iterations                   250          :
          :  Hamiltonian                  GFN2-xTB          :
          :  restarted?                      false          :
          :  GBSA solvation                  false          :
          :  PC potential                    false          :
          :  electronic temp.          300.0000000     K    :
          :  accuracy                    1.0000000          :
          :  -> integral cutoff          0.2500000E+02      :
          :  -> integral neglect         0.1000000E-07      :
          :  -> SCF convergence          0.1000000E-05 Eh   :
          :  -> wf. convergence          0.1000000E-03 e    :
          :  Broyden damping             0.4000000          :
          ...................................................

 iter      E             dE          RMSdq      gap      omega  full diag
   1    -83.3884763 -0.833885E+02  0.384E-05    3.21       0.0  T
   2    -83.3884763  0.103739E-11  0.283E-05    3.21     456.4  T
   3    -83.3884763 -0.152767E-10  0.190E-05    3.21     680.7  T

   *** convergence criteria satisfied after 3 iterations ***

         #    Occupation            Energy/Eh            Energy/eV
      -------------------------------------------------------------
         1        2.0000           -0.6881156             -18.7246
       ...           ...                  ...                  ...
        69        2.0000           -0.4058781             -11.0445
        70        2.0000           -0.3978314             -10.8255
        71        2.0000           -0.3952666             -10.7558
        72        2.0000           -0.3945511             -10.7363
        73        2.0000           -0.3891522             -10.5894
        74        2.0000           -0.3551432              -9.6639
        75        2.0000           -0.3441726              -9.3654 (HOMO)
        76                         -0.2262375              -6.1562 (LUMO)
        77                         -0.2163568              -5.8874
        78                         -0.1899457              -5.1687
        79                         -0.1043422              -2.8393
        80                         -0.0957516              -2.6055
       ...                                ...                  ...
       144                          0.6789870              18.4762
      -------------------------------------------------------------
                  HL-Gap            0.1179351 Eh            3.2092 eV
             Fermi-level           -0.2852050 Eh           -7.7608 eV

 SCC (total)                   0 d,  0 h,  0 min,  0.040 sec
 SCC setup                      ...        0 min,  0.000 sec (  0.521%)
 Dispersion                     ...        0 min,  0.000 sec (  0.855%)
 classical contributions        ...        0 min,  0.000 sec (  0.404%)
 integral evaluation            ...        0 min,  0.006 sec ( 13.894%)
 iterations                     ...        0 min,  0.008 sec ( 19.260%)
 molecular gradient             ...        0 min,  0.026 sec ( 64.318%)
 printout                       ...        0 min,  0.000 sec (  0.737%)

         :::::::::::::::::::::::::::::::::::::::::::::::::::::
         ::                     SUMMARY                     ::
         :::::::::::::::::::::::::::::::::::::::::::::::::::::
         :: total energy             -82.312175878036 Eh    ::
         :: gradient norm              0.000707181010 Eh/a0 ::
         :: HOMO-LUMO gap              3.209177211189 eV    ::
         ::.................................................::
         :: SCC energy               -83.388476307533 Eh    ::
         :: -> isotropic ES            0.147414894472 Eh    ::
         :: -> anisotropic ES          0.012487806126 Eh    ::
         :: -> anisotropic XC          0.026866771408 Eh    ::
         :: -> dispersion             -0.061246837911 Eh    ::
         :: repulsion energy           1.075313620904 Eh    ::
         :: add. restraining           0.000224148289 Eh    ::
         :: total charge              -0.000000000000 e     ::
         :::::::::::::::::::::::::::::::::::::::::::::::::::::

           -------------------------------------------------
          |                Property Printout                |
           -------------------------------------------------

    * Orbital Energies and Occupations

         #    Occupation            Energy/Eh            Energy/eV
      -------------------------------------------------------------
         1        2.0000           -0.6881156             -18.7246
       ...           ...                  ...                  ...
        63        2.0000           -0.4361128             -11.8672
        64        2.0000           -0.4339355             -11.8080
        65        2.0000           -0.4268859             -11.6162
        66        2.0000           -0.4198866             -11.4257
        67        2.0000           -0.4187493             -11.3947
        68        2.0000           -0.4124867             -11.2243
        69        2.0000           -0.4058781             -11.0445
        70        2.0000           -0.3978314             -10.8255
        71        2.0000           -0.3952666             -10.7558
        72        2.0000           -0.3945511             -10.7363
        73        2.0000           -0.3891522             -10.5894
        74        2.0000           -0.3551432              -9.6639
        75        2.0000           -0.3441726              -9.3654 (HOMO)
        76                         -0.2262375              -6.1562 (LUMO)
        77                         -0.2163568              -5.8874
        78                         -0.1899457              -5.1687
        79                         -0.1043422              -2.8393
        80                         -0.0957516              -2.6055
        81                         -0.0427636              -1.1637
        82                          0.0082923               0.2256
        83                          0.0129235               0.3517
        84                          0.0284819               0.7750
        85                          0.0312517               0.8504
        86                          0.0566774               1.5423
       ...                                ...                  ...
       144                          0.6789870              18.4762
      -------------------------------------------------------------
                  HL-Gap            0.1179351 Eh            3.2092 eV
             Fermi-level           -0.2852050 Eh           -7.7608 eV

     #   Z          covCN         q      C6AA      α(0)
     1   6 C        3.755    -0.117    22.791     6.807
     2   6 C        3.860     0.129    18.451     6.109
     3   8 O        1.638    -0.373    20.335     6.087
     4   6 C        3.755    -0.116    22.770     6.804
     5   6 C        3.860     0.129    18.447     6.108
     6   6 C        3.755    -0.117    22.797     6.808
     7   6 C        3.755    -0.116    22.771     6.804
     8   8 O        1.638    -0.375    20.383     6.094
     9   5 B        2.661     0.431    15.563     6.641
    10   6 C        2.884    -0.087    30.178     9.006
    11   6 C        2.894    -0.031    28.766     8.794
    12   6 C        3.801    -0.020    20.930     6.514
    13   1 H        0.926     0.032     2.558     2.501
    14   6 C        3.863    -0.009    20.702     6.470
    15   1 H        0.925     0.045     2.381     2.413
    16   6 C        2.863    -0.086    30.146     9.000
    17   5 B        2.662     0.432    15.555     6.638
    18   8 O        1.638    -0.373    20.351     6.089
    19   6 C        3.860     0.129    18.454     6.109
    20   6 C        3.755    -0.117    22.801     6.809
    21   6 C        3.755    -0.116    22.781     6.806
    22   6 C        3.860     0.129    18.455     6.109
    23   6 C        3.755    -0.116    22.786     6.806
    24   6 C        3.755    -0.118    22.807     6.810
    25   8 O        1.638    -0.370    20.285     6.080
    26   6 C        2.900    -0.025    28.630     8.773
    27   6 C        3.863    -0.016    20.820     6.489
    28   1 H        0.924     0.045     2.380     2.413
    29   6 C        2.910    -0.035    28.868     8.810
    30   6 C        2.889    -0.038    28.948     8.821
    31   6 C        3.803    -0.017    20.883     6.506
    32   1 H        0.926     0.032     2.563     2.503
    33   1 H        0.925     0.054     2.272     2.357
    34   1 H        0.925     0.039     2.465     2.455
    35   1 H        0.925     0.052     2.301     2.372
    36   1 H        0.925     0.052     2.298     2.370
    37   1 H        0.925     0.043     2.407     2.426
    38   1 H        0.925     0.042     2.428     2.437
    39   1 H        0.925     0.039     2.458     2.452
    40   1 H        0.925     0.052     2.299     2.371
    41   1 H        0.925     0.054     2.275     2.359
    42   1 H        0.925     0.042     2.422     2.434
    43   1 H        0.925     0.051     2.304     2.374
    44   1 H        0.925     0.043     2.407     2.426
    45   1 H        0.925     0.036     2.506     2.476
    46   1 H        0.925     0.054     2.268     2.355
    47   1 H        0.925     0.040     2.450     2.448
    48   1 H        0.925     0.052     2.294     2.369
    49   1 H        0.925     0.052     2.295     2.369
    50   1 H        0.925     0.044     2.400     2.422
    51   1 H        0.925     0.043     2.415     2.430
    52   1 H        0.925     0.043     2.410     2.428
    53   1 H        0.925     0.053     2.286     2.364
    54   1 H        0.925     0.044     2.398     2.422
    55   1 H        0.925     0.040     2.448     2.447
    56   1 H        0.925     0.052     2.292     2.368
    57   1 H        0.925     0.055     2.261     2.352
    58   1 H        0.925     0.037     2.490     2.467
    59   1 H        0.926     0.026     2.650     2.546
    60   1 H        0.925     0.024     2.674     2.557

 Mol. C6AA /au·bohr⁶  :      32802.737913
 Mol. C8AA /au·bohr⁸  :     759534.525708
 Mol. α(0) /au        :        273.182781


Wiberg/Mayer (AO) data.
largest (>0.10) Wiberg bond orders for each atom

 ---------------------------------------------------------------------------
     #   Z sym  total        # sym  WBO       # sym  WBO       # sym  WBO
 ---------------------------------------------------------------------------
     1   6 C    3.994 --     2 C    0.997    34 H    0.985    33 H    0.983
                            35 H    0.982
     2   6 C    3.944 --     1 C    0.997     4 C    0.990     3 O    0.954
                             5 C    0.937
     3   8 O    2.229 --     9 B    1.123     2 C    0.954
     4   6 C    3.994 --     2 C    0.990    38 H    0.985    37 H    0.984
                            36 H    0.983
     5   6 C    3.943 --     6 C    0.996     7 C    0.990     8 O    0.954
                             2 C    0.937
     6   6 C    3.994 --     5 C    0.996    39 H    0.985    41 H    0.983
                            40 H    0.982
     7   6 C    3.995 --     5 C    0.990    42 H    0.985    44 H    0.984
                            43 H    0.983
     8   8 O    2.225 --     9 B    1.121     5 C    0.954
     9   5 B    3.378 --     3 O    1.123     8 O    1.121    10 C    1.011
    10   6 C    3.973 --    11 C    1.729     9 B    1.011    27 C    0.958
    11   6 C    3.990 --    10 C    1.729    12 C    1.160    45 H    0.962
    12   6 C    3.940 --    11 C    1.160    13 H    0.974    14 C    0.916
                            31 C    0.740
    13   1 H    0.999 --    12 C    0.974
    14   6 C    3.966 --    16 C    1.035    15 H    0.968    31 C    0.936
                            12 C    0.916
    15   1 H    0.998 --    14 C    0.968
    16   6 C    3.978 --    26 C    1.824    14 C    1.035    17 B    0.997
    17   5 B    3.376 --    25 O    1.134    18 O    1.127    16 C    0.997
    18   8 O    2.232 --    17 B    1.127    19 C    0.952
    19   6 C    3.943 --    20 C    0.997    21 C    0.991    18 O    0.952
                            22 C    0.937
    20   6 C    3.994 --    19 C    0.997    47 H    0.984    46 H    0.983
                            48 H    0.982
    21   6 C    3.994 --    19 C    0.991    51 H    0.984    50 H    0.984
                            49 H    0.983
    22   6 C    3.942 --    24 C    0.996    23 C    0.991    25 O    0.952
                            19 C    0.937
    23   6 C    3.995 --    22 C    0.991    52 H    0.984    54 H    0.984
                            53 H    0.983
    24   6 C    3.994 --    22 C    0.996    55 H    0.984    57 H    0.983
                            56 H    0.982
    25   8 O    2.237 --    17 B    1.134    22 C    0.952
    26   6 C    3.986 --    16 C    1.824    27 C    1.000    58 H    0.967
    27   6 C    3.995 --    26 C    1.000    29 C    0.981    28 H    0.971
                            10 C    0.958
    28   1 H    0.998 --    27 C    0.971
    29   6 C    3.986 --    30 C    1.809    27 C    0.981    59 H    0.970
    30   6 C    3.990 --    29 C    1.809    31 C    1.134    60 H    0.965
    31   6 C    3.934 --    30 C    1.134    32 H    0.975    14 C    0.936
                            12 C    0.740
    32   1 H    0.999 --    31 C    0.975
    33   1 H    0.997 --     1 C    0.983
    34   1 H    0.998 --     1 C    0.985
    35   1 H    0.997 --     1 C    0.982
    36   1 H    0.997 --     4 C    0.983
    37   1 H    0.998 --     4 C    0.984
    38   1 H    0.998 --     4 C    0.985
    39   1 H    0.998 --     6 C    0.985
    40   1 H    0.997 --     6 C    0.982
    41   1 H    0.997 --     6 C    0.983
    42   1 H    0.998 --     7 C    0.985
    43   1 H    0.997 --     7 C    0.983
    44   1 H    0.998 --     7 C    0.984
    45   1 H    0.999 --    11 C    0.962
    46   1 H    0.997 --    20 C    0.983
    47   1 H    0.998 --    20 C    0.984
    48   1 H    0.997 --    20 C    0.982
    49   1 H    0.997 --    21 C    0.983
    50   1 H    0.998 --    21 C    0.984
    51   1 H    0.998 --    21 C    0.984
    52   1 H    0.998 --    23 C    0.984
    53   1 H    0.997 --    23 C    0.983
    54   1 H    0.998 --    23 C    0.984
    55   1 H    0.998 --    24 C    0.984
    56   1 H    0.997 --    24 C    0.982
    57   1 H    0.997 --    24 C    0.983
    58   1 H    0.999 --    26 C    0.967
    59   1 H    0.999 --    29 C    0.970
    60   1 H    0.999 --    30 C    0.965
 ---------------------------------------------------------------------------

Topologies differ in total number of bonds
Writing topology from bond orders to xtbtopo.mol

molecular dipole:
                 x           y           z       tot (Debye)
 q only:       -0.246      -0.465       0.289
   full:       -0.169      -0.565       0.285       1.664
molecular quadrupole (traceless):
                xx          xy          yy          xz          yz          zz
 q only:      -54.366      19.652      47.269     -23.817     -49.379       7.097
  q+dip:      -60.054      12.860      58.427     -18.072     -53.238       1.627
   full:      -60.927      11.765      59.948     -19.901     -54.356       0.978

           -------------------------------------------------
          |                Geometry Summary                 |
           -------------------------------------------------

      molecular mass/u    :      382.1099696
   center of mass at/Å    :        2.9683373     -35.8881134      21.8183125
  moments of inertia/u·Å² :        0.1415892E+04   0.6353922E+04   0.6822611E+04
rotational constants/cm⁻¹ :        0.1190602E-01   0.2653106E-02   0.2470847E-02

 * 58 selected distances

     #   Z          #   Z                                           value/Å
     1   6 C        2   6 C                                       1.5269779
     2   6 C        3   8 O                                       1.4259251
     2   6 C        4   6 C                                       1.5342505
     5   6 C        6   6 C                                       1.5270031
     5   6 C        7   6 C                                       1.5342271
     5   6 C        8   8 O                                       1.4268438
     3   8 O        9   5 B                                       1.3691322
     8   8 O        9   5 B                                       1.3694816
     9   5 B       10   6 C                                       1.5543249
    10   6 C       11   6 C                                       1.3487252
    11   6 C       12   6 C                                       1.4368692
    12   6 C       13   1 H                                       1.0801247 (min)
    12   6 C       14   6 C                                       1.5136146
    14   6 C       15   1 H                                       1.0857764
    14   6 C       16   6 C                                       1.4830891
    16   6 C       17   5 B                                       1.5619401 (max)
    17   5 B       18   8 O                                       1.3683526
    18   8 O       19   6 C                                       1.4273172
    19   6 C       20   6 C                                       1.5268300
    19   6 C       21   6 C                                       1.5340854
    22   6 C       23   6 C                                       1.5339169
    22   6 C       24   6 C                                       1.5270637
    17   5 B       25   8 O                                       1.3659196
    22   6 C       25   8 O                                       1.4275625
    16   6 C       26   6 C                                       1.3367050
    27   6 C       28   1 H                                       1.0913410
    29   6 C       30   6 C                                       1.3348441
    14   6 C       31   6 C                                       1.5053987
    30   6 C       31   6 C                                       1.4432316
    31   6 C       32   1 H                                       1.0804014
     1   6 C       33   1 H                                       1.0872381
     1   6 C       34   1 H                                       1.0867129
     1   6 C       35   1 H                                       1.0851830
     4   6 C       36   1 H                                       1.0876706
     4   6 C       37   1 H                                       1.0871491
     4   6 C       38   1 H                                       1.0859051
     6   6 C       39   1 H                                       1.0866928
     6   6 C       40   1 H                                       1.0850949
     6   6 C       41   1 H                                       1.0871662
     7   6 C       42   1 H                                       1.0858650
     7   6 C       43   1 H                                       1.0876007
     7   6 C       44   1 H                                       1.0871857
    11   6 C       45   1 H                                       1.0838051
    20   6 C       46   1 H                                       1.0872375
    20   6 C       47   1 H                                       1.0866682
    20   6 C       48   1 H                                       1.0850959
    21   6 C       49   1 H                                       1.0876590
    21   6 C       50   1 H                                       1.0871133
    21   6 C       51   1 H                                       1.0858238
    23   6 C       52   1 H                                       1.0858960
    23   6 C       53   1 H                                       1.0875050
    23   6 C       54   1 H                                       1.0871000
    24   6 C       55   1 H                                       1.0866415
    24   6 C       56   1 H                                       1.0851159
    24   6 C       57   1 H                                       1.0871267
    26   6 C       58   1 H                                       1.0814908
    29   6 C       59   1 H                                       1.0811398
    30   6 C       60   1 H                                       1.0841026

 * 5 distinct bonds (by element types)

   Z      Z             #   av. dist./Å        max./Å        min./Å
   1 H    6 C          32     1.0858321     1.0913410     1.0801247
   5 B    6 C           2     1.5581325     1.5619401     1.5543249
   6 C    6 C          16     1.4779270     1.5342505     1.3348441
   5 B    8 O           4     1.3682215     1.3694816     1.3659196
   6 C    8 O           4     1.4269122     1.4275625     1.4259251


optimized geometry written to: xtbopt.xyz


           -------------------------------------------------
          | TOTAL ENERGY              -82.312175878036 Eh   |
          | GRADIENT NORM               0.000707181010 Eh/α |
          | HOMO-LUMO GAP               3.209177211189 eV   |
           -------------------------------------------------

------------------------------------------------------------------------
 * finished run on 2022/07/09 at 18:32:59.320     
------------------------------------------------------------------------
 total:
 * wall-time:     0 d,  0 h,  0 min,  2.550 sec
 *  cpu-time:     0 d,  0 h,  0 min,  2.547 sec
 * ratio c/w:     0.999 speedup
 SCF:
 * wall-time:     0 d,  0 h,  0 min,  0.068 sec
 *  cpu-time:     0 d,  0 h,  0 min,  0.068 sec
 * ratio c/w:     1.000 speedup
 ANC optimizer:
 * wall-time:     0 d,  0 h,  0 min,  2.470 sec
 *  cpu-time:     0 d,  0 h,  0 min,  2.467 sec
 * ratio c/w:     0.999 speedup

