      -----------------------------------------------------------      
     |                   =====================                   |     
     |                           x T B                           |     
     |                   =====================                   |     
     |                         S. Grimme                         |     
     |          Mulliken Center for Theoretical Chemistry        |     
     |                    University of Bonn                     |     
      -----------------------------------------------------------      

   * xtb version 6.5.0 (homebrew) compiled by 'nhattrup@GPGGRP-SHANNON.CHEME.CMU.EDU' on 

   xtb is free software: you can redistribute it and/or modify it under
   the terms of the GNU Lesser General Public License as published by
   the Free Software Foundation, either version 3 of the License, or
   (at your option) any later version.
   
   xtb is distributed in the hope that it will be useful,
   but WITHOUT ANY WARRANTY; without even the implied warranty of
   MERCHANTABILITY or FITNESS FOR A PARTICULAR PURPOSE.  See the
   GNU Lesser General Public License for more details.
   
   Cite this work as:
   * C. Bannwarth, E. Caldeweyher, S. Ehlert, A. Hansen, P. Pracht,
     J. Seibert, S. Spicher, S. Grimme, WIREs Comput. Mol. Sci., 2020, 11,
     e01493. DOI: 10.1002/wcms.1493
   
   for GFN2-xTB:
   * C. Bannwarth, S. Ehlert and S. Grimme., J. Chem. Theory Comput., 2019,
     15, 1652-1671. DOI: 10.1021/acs.jctc.8b01176
   for GFN1-xTB:
   * S. Grimme, C. Bannwarth, P. Shushkov, J. Chem. Theory Comput., 2017,
     13, 1989-2009. DOI: 10.1021/acs.jctc.7b00118
   for GFN0-xTB:
   * P. Pracht, E. Caldeweyher, S. Ehlert, S. Grimme, ChemRxiv, 2019, preprint.
     DOI: 10.26434/chemrxiv.8326202.v1
   for GFN-FF:
   * S. Spicher and S. Grimme, Angew. Chem. Int. Ed., 2020, 59, 15665-15673.
     DOI: 10.1002/anie.202004239
   
   for ALPB and GBSA implicit solvation:
   * S. Ehlert, M. Stahn, S. Spicher, S. Grimme, J. Chem. Theory Comput.,
     2021, 17, 4250-4261. DOI: 10.1021/acs.jctc.1c00471
   
   for DFT-D4:
   * E. Caldeweyher, C. Bannwarth and S. Grimme, J. Chem. Phys., 2017,
     147, 034112. DOI: 10.1063/1.4993215
   * E. Caldeweyher, S. Ehlert, A. Hansen, H. Neugebauer, S. Spicher,
     C. Bannwarth and S. Grimme, J. Chem. Phys., 2019, 150, 154122.
     DOI: 10.1063/1.5090222
   * E. Caldeweyher, J.-M. Mewes, S. Ehlert and S. Grimme, Phys. Chem. Chem. Phys.
     2020, 22, 8499-8512. DOI: 10.1039/D0CP00502A
   
   for sTDA-xTB:
   * S. Grimme and C. Bannwarth, J. Chem. Phys., 2016, 145, 054103.
     DOI: 10.1063/1.4959605
   
   in the mass-spec context:
   * V. Asgeirsson, C. Bauer and S. Grimme, Chem. Sci., 2017, 8, 4879.
     DOI: 10.1039/c7sc00601b
   * J. Koopman and S. Grimme, ACS Omega 2019, 4, 12, 15120-15133.
     DOI: 10.1021/acsomega.9b02011
   
   for metadynamics refer to:
   * S. Grimme, J. Chem. Theory Comput., 2019, 155, 2847-2862
     DOI: 10.1021/acs.jctc.9b00143
   
   for SPH calculations refer to:
   * S. Spicher and S. Grimme, J. Chem. Theory Comput., 2021, 17, 1701-1714
     DOI: 10.1021/acs.jctc.0c01306
   
   with help from (in alphabetical order)
   P. Atkinson, C. Bannwarth, F. Bohle, G. Brandenburg, E. Caldeweyher
   M. Checinski, S. Dohm, S. Ehlert, S. Ehrlich, I. Gerasimov, C. Hölzer
   A. Katbashev, J. Koopman, C. Lavigne, S. Lehtola, F. März, M. Müller,
   F. Musil, H. Neugebauer, J. Pisarek, C. Plett, P. Pracht, F. Pultar,
   J. Seibert, P. Shushkov, S. Spicher, M. Stahn, M. Steiner, T. Strunk,
   J. Stückrath, T. Rose, and J. Unsleber
   
 * started run on 2022/07/09 at 18:33:26.666     

           -------------------------------------------------
          |                Calculation Setup                |
           -------------------------------------------------

          program call               : /opt/homebrew/bin/xtb bvl_bpin2_scan_3-7_xtb.xyz --chrg 0 --uhf 0 --opt --input xcontrol_bvl_bpin2_scan_3-7_xtb
          coordinate file            : bvl_bpin2_scan_3-7_xtb.xyz
          omp threads                :                     1

   ID    Z sym.   atoms
    1    6 C      1, 2, 4-7, 10-12, 14, 16, 19-24, 26, 27, 29-31
    2    8 O      3, 8, 18, 25
    3    5 B      9, 17
    4    1 H      13, 15, 28, 32-60
constraining bond 12 31 to    1.8333000 Å, actual value:    1.7217481 Å
constraining bond 10 29 to    1.7222000 Å, actual value:    1.8345939 Å

           -------------------------------------------------
          |                 G F N 2 - x T B                 |
           -------------------------------------------------

        Reference                      10.1021/acs.jctc.8b01176
      * Hamiltonian:
        H0-scaling (s, p, d)           1.850000    2.230000    2.230000
        zeta-weighting                 0.500000
      * Dispersion:
        s8                             2.700000
        a1                             0.520000
        a2                             5.000000
        s9                             5.000000
      * Repulsion:
        kExp                           1.500000    1.000000
        rExp                           1.000000
      * Coulomb:
        alpha                          2.000000
        third order                    shell-resolved
        anisotropic                    true
        a3                             3.000000
        a5                             4.000000
        cn-shift                       1.200000
        cn-exp                         4.000000
        max-rad                        5.000000


          ...................................................
          :                      SETUP                      :
          :.................................................:
          :  # basis functions                 144          :
          :  # atomic orbitals                 144          :
          :  # shells                           88          :
          :  # electrons                       150          :
          :  max. iterations                   250          :
          :  Hamiltonian                  GFN2-xTB          :
          :  restarted?                      false          :
          :  GBSA solvation                  false          :
          :  PC potential                    false          :
          :  electronic temp.          300.0000000     K    :
          :  accuracy                    1.0000000          :
          :  -> integral cutoff          0.2500000E+02      :
          :  -> integral neglect         0.1000000E-07      :
          :  -> SCF convergence          0.1000000E-05 Eh   :
          :  -> wf. convergence          0.1000000E-03 e    :
          :  Broyden damping             0.4000000          :
          ...................................................

 iter      E             dE          RMSdq      gap      omega  full diag
   1    -82.9415235 -0.829415E+02  0.464E+00    3.09       0.0  T
   2    -83.3281623 -0.386639E+00  0.286E+00    2.55       1.0  T
   3    -83.3420959 -0.139336E-01  0.136E+00    2.90       1.0  T
   4    -83.3635925 -0.214966E-01  0.410E-01    2.73       1.0  T
   5    -83.3749600 -0.113675E-01  0.154E-01    2.80       1.0  T
   6    -83.3750537 -0.937126E-04  0.102E-01    2.80       1.0  T
   7    -83.3753046 -0.250929E-03  0.251E-02    2.79       1.0  T
   8    -83.3753222 -0.176051E-04  0.790E-03    2.79       1.6  T
   9    -83.3753231 -0.872390E-06  0.425E-03    2.79       3.0  T
  10    -83.3753233 -0.217361E-06  0.240E-03    2.79       5.4  T
  11    -83.3753235 -0.196418E-06  0.547E-04    2.79      23.6  T
  12    -83.3753235 -0.102604E-07  0.257E-04    2.79      50.3  T

   *** convergence criteria satisfied after 12 iterations ***

         #    Occupation            Energy/Eh            Energy/eV
      -------------------------------------------------------------
         1        2.0000           -0.6907442             -18.7961
       ...           ...                  ...                  ...
        69        2.0000           -0.4079867             -11.1019
        70        2.0000           -0.3996870             -10.8760
        71        2.0000           -0.3974162             -10.8142
        72        2.0000           -0.3955021             -10.7622
        73        2.0000           -0.3803384             -10.3495
        74        2.0000           -0.3665350              -9.9739
        75        2.0000           -0.3272264              -8.9043 (HOMO)
        76                         -0.2245766              -6.1110 (LUMO)
        77                         -0.2105902              -5.7305
        78                         -0.1644940              -4.4761
        79                         -0.1054508              -2.8695
        80                         -0.0856043              -2.3294
       ...                                ...                  ...
       144                          0.6966830              18.9577
      -------------------------------------------------------------
                  HL-Gap            0.1026498 Eh            2.7932 eV
             Fermi-level           -0.2759015 Eh           -7.5077 eV

 SCC (total)                   0 d,  0 h,  0 min,  0.068 sec
 SCC setup                      ...        0 min,  0.000 sec (  0.351%)
 Dispersion                     ...        0 min,  0.000 sec (  0.611%)
 classical contributions        ...        0 min,  0.000 sec (  0.261%)
 integral evaluation            ...        0 min,  0.006 sec (  9.003%)
 iterations                     ...        0 min,  0.033 sec ( 48.556%)
 molecular gradient             ...        0 min,  0.028 sec ( 40.698%)
 printout                       ...        0 min,  0.000 sec (  0.514%)

         :::::::::::::::::::::::::::::::::::::::::::::::::::::
         ::                     SUMMARY                     ::
         :::::::::::::::::::::::::::::::::::::::::::::::::::::
         :: total energy             -82.120843881141 Eh    ::
         :: gradient norm              1.679585600362 Eh/a0 ::
         :: HOMO-LUMO gap              2.793243153685 eV    ::
         ::.................................................::
         :: SCC energy               -83.375323493764 Eh    ::
         :: -> isotropic ES            0.148081684703 Eh    ::
         :: -> anisotropic ES          0.011223027116 Eh    ::
         :: -> anisotropic XC          0.025998049253 Eh    ::
         :: -> dispersion             -0.060876048001 Eh    ::
         :: repulsion energy           1.074745856261 Eh    ::
         :: add. restraining           0.179097541548 Eh    ::
         :: total charge               0.000000000000 e     ::
         :::::::::::::::::::::::::::::::::::::::::::::::::::::

      ----------------------------------------------------------- 
     |                   =====================                   |
     |                        A N C O P T                        |
     |                   =====================                   |
     |               Approximate Normal Coordinate               |
     |                Rational Function Optimizer                |
      ----------------------------------------------------------- 

          ...................................................
          :                      SETUP                      :
          :.................................................:
          :   optimization level            normal          :
          :   max. optcycles                   200          :
          :   ANC micro-cycles                  20          :
          :   degrees of freedom               174          :
          :.................................................:
          :   RF solver                   davidson          :
          :   write xtbopt.log                true          :
          :   linear?                        false          :
          :   energy convergence         0.5000000E-05 Eh   :
          :   grad. convergence          0.1000000E-02 Eh/α :
          :   maximium RF displ.         1.0000000          :
          :   Hlow (freq-cutoff)         0.1000000E-01      :
          :   Hmax (freq-cutoff)         5.0000000          :
          :   S6 in model hess.         20.0000000          :
          ...................................................

generating ANC from model Hessian ...
Using Lindh-Hessian (1995)
 Shifting diagonal of input Hessian by   0.20869098044080270     
 Lowest  eigenvalues of input Hessian
    0.010000    0.134156    0.000000    0.000000    0.000000    0.000000
    0.000000    0.000000    0.208808    0.208834    0.208984    0.210346
    0.210581    0.211515    0.211968    0.212038    0.213359    0.213855
 Highest eigenvalues
    1.929399    2.011179    2.133148    2.220460    9.016049    9.168654


........................................................................
.............................. CYCLE    1 ..............................
........................................................................
   1    -83.3753235 -0.833753E+02  0.127E-04    2.79       0.0  T
   2    -83.3753235 -0.104195E-08  0.736E-05    2.79     175.3  T
   3    -83.3753235 -0.329905E-09  0.260E-05    2.79     497.4  T
     SCC iter.                  ...        0 min,  0.008 sec
     gradient                   ...        0 min,  0.028 sec
 * total energy  :   -82.1208439 Eh     change       -0.5360761E-09 Eh
   gradient norm :     1.6795859 Eh/α   predicted     0.0000000E+00 (-100.00%)
   displ. norm   :     0.3104074 α      lambda       -0.5156771E+00
   maximum displ.:     0.2510408 α      in ANC's #174, #173, #128, ...

........................................................................
.............................. CYCLE    2 ..............................
........................................................................
   1    -83.3707379 -0.833707E+02  0.431E-01    2.83       0.0  T
   2    -83.3711248 -0.386865E-03  0.302E-01    2.81       1.0  T
   3    -83.3694505  0.167428E-02  0.169E-01    2.80       1.0  T
   4    -83.3715984 -0.214783E-02  0.342E-02    2.80       1.0  T
   5    -83.3716616 -0.632090E-04  0.779E-03    2.80       1.7  T
   6    -83.3716626 -0.106737E-05  0.428E-03    2.80       3.0  T
   7    -83.3716629 -0.261846E-06  0.137E-03    2.80       9.4  T
   8    -83.3716629 -0.261026E-07  0.652E-04    2.80      19.8  T
   9    -83.3716629 -0.147667E-07  0.225E-04    2.80      57.4  T
     SCC iter.                  ...        0 min,  0.024 sec
     gradient                   ...        0 min,  0.028 sec
 * total energy  :   -82.2569794 Eh     change       -0.1361355E+00 Eh
   gradient norm :     0.8065606 Eh/α   predicted    -0.2828862E+00 ( 107.80%)
   displ. norm   :     0.1043098 α      lambda       -0.8017319E-01
   maximum displ.:     0.0807588 α      in ANC's #174, #173, #170, ...

........................................................................
.............................. CYCLE    3 ..............................
........................................................................
   1    -83.3726074 -0.833726E+02  0.128E-01    2.78       0.0  T
   2    -83.3727213 -0.113951E-03  0.101E-01    2.78       1.0  T
   3    -83.3727619 -0.405275E-04  0.506E-02    2.79       1.0  T
   4    -83.3728223 -0.604666E-04  0.184E-02    2.79       1.0  T
   5    -83.3728404 -0.180352E-04  0.277E-03    2.79       4.7  T
   6    -83.3728406 -0.207137E-06  0.143E-03    2.79       9.0  T
   7    -83.3728406 -0.198238E-07  0.468E-04    2.79      27.6  T
   8    -83.3728406 -0.268371E-08  0.209E-04    2.79      61.9  T
     SCC iter.                  ...        0 min,  0.022 sec
     gradient                   ...        0 min,  0.028 sec
 * total energy  :   -82.2981103 Eh     change       -0.4113094E-01 Eh
   gradient norm :     0.0362720 Eh/α   predicted    -0.4052526E-01 (  -1.47%)
   displ. norm   :     0.0387750 α      lambda       -0.1047572E-02
   maximum displ.:     0.0146678 α      in ANC's #37, #38, #119, ...

........................................................................
.............................. CYCLE    4 ..............................
........................................................................
   1    -83.3730995 -0.833731E+02  0.294E-02    2.79       0.0  T
   2    -83.3731079 -0.844955E-05  0.188E-02    2.79       1.0  T
   3    -83.3731103 -0.239990E-05  0.115E-02    2.79       1.1  T
   4    -83.3731133 -0.293761E-05  0.403E-03    2.79       3.2  T
   5    -83.3731141 -0.797240E-06  0.768E-04    2.79      16.8  T
   6    -83.3731141 -0.263226E-07  0.273E-04    2.79      47.3  T
     SCC iter.                  ...        0 min,  0.020 sec
     gradient                   ...        0 min,  0.028 sec
 * total energy  :   -82.2989255 Eh     change       -0.8152011E-03 Eh
   gradient norm :     0.0210332 Eh/α   predicted    -0.5245943E-03 ( -35.65%)
   displ. norm   :     0.2023797 α      lambda       -0.1458777E-02
   maximum displ.:     0.1834703 α      in ANC's #1, #37, #38, ...

........................................................................
.............................. CYCLE    5 ..............................
........................................................................
   1    -83.3706829 -0.833707E+02  0.125E-01    2.80       0.0  T
   2    -83.3707141 -0.312591E-04  0.749E-02    2.80       1.0  T
   3    -83.3706576  0.565158E-04  0.495E-02    2.80       1.0  T
   4    -83.3707523 -0.946659E-04  0.824E-03    2.80       1.6  T
   5    -83.3707563 -0.397429E-05  0.174E-03    2.80       7.4  T
   6    -83.3707563 -0.634945E-07  0.933E-04    2.80      13.8  T
   7    -83.3707563 -0.158918E-07  0.443E-04    2.80      29.2  T
     SCC iter.                  ...        0 min,  0.019 sec
     gradient                   ...        0 min,  0.028 sec
 * total energy  :   -82.2974165 Eh     change        0.1509025E-02 Eh
   gradient norm :     0.0506212 Eh/α   predicted    -0.7594535E-03 (-150.33%)
   displ. norm   :     0.2403087 α      lambda       -0.5339826E-02
   maximum displ.:     0.2280037 α      in ANC's #1, #37, #38, ...

........................................................................
.............................. CYCLE    6 ..............................
........................................................................
   1    -83.3734340 -0.833734E+02  0.148E-01    2.80       0.0  T
   2    -83.3734696 -0.356414E-04  0.887E-02    2.80       1.0  T
   3    -83.3733984  0.712508E-04  0.567E-02    2.80       1.0  T
   4    -83.3735145 -0.116108E-03  0.653E-03    2.80       2.0  T
   5    -83.3735171 -0.266887E-05  0.168E-03    2.80       7.7  T
   6    -83.3735172 -0.418657E-07  0.959E-04    2.80      13.5  T
   7    -83.3735172 -0.104973E-07  0.363E-04    2.80      35.6  T
     SCC iter.                  ...        0 min,  0.019 sec
     gradient                   ...        0 min,  0.028 sec
 * total energy  :   -82.2986676 Eh     change       -0.1251073E-02 Eh
   gradient norm :     0.0377134 Eh/α   predicted    -0.2823941E-02 ( 125.72%)
   displ. norm   :     0.1145472 α      lambda       -0.2434996E-02
   maximum displ.:     0.0434276 α      in ANC's #37, #1, #38, ...

........................................................................
.............................. CYCLE    7 ..............................
........................................................................
   1    -83.3735302 -0.833735E+02  0.858E-02    2.79       0.0  T
   2    -83.3735860 -0.558414E-04  0.522E-02    2.79       1.0  T
   3    -83.3735862 -0.172703E-06  0.326E-02    2.79       1.0  T
   4    -83.3736188 -0.326333E-04  0.986E-03    2.79       1.3  T
   5    -83.3736236 -0.478964E-05  0.208E-03    2.79       6.2  T
   6    -83.3736238 -0.186288E-06  0.783E-04    2.79      16.5  T
   7    -83.3736238 -0.725582E-08  0.326E-04    2.79      39.7  T
     SCC iter.                  ...        0 min,  0.021 sec
     gradient                   ...        0 min,  0.028 sec
 * total energy  :   -82.2993279 Eh     change       -0.6602658E-03 Eh
   gradient norm :     0.0311532 Eh/α   predicted    -0.1234930E-02 (  87.04%)
   displ. norm   :     0.0493822 α      lambda       -0.1038624E-02
   maximum displ.:     0.0220340 α      in ANC's #37, #1, #38, ...

........................................................................
.............................. CYCLE    8 ..............................
........................................................................
   1    -83.3739752 -0.833740E+02  0.312E-02    2.79       0.0  T
   2    -83.3739807 -0.549707E-05  0.189E-02    2.79       1.0  T
   3    -83.3739788  0.186895E-05  0.118E-02    2.79       1.1  T
   4    -83.3739839 -0.514889E-05  0.327E-03    2.79       3.9  T
   5    -83.3739845 -0.561966E-06  0.656E-04    2.79      19.7  T
   6    -83.3739845 -0.165210E-07  0.273E-04    2.79      47.2  T
     SCC iter.                  ...        0 min,  0.016 sec
     gradient                   ...        0 min,  0.028 sec
 * total energy  :   -82.2996084 Eh     change       -0.2805190E-03 Eh
   gradient norm :     0.0068415 Eh/α   predicted    -0.2667754E-03 (  -4.90%)
   displ. norm   :     0.0169612 α      lambda       -0.1301625E-03
   maximum displ.:     0.0100697 α      in ANC's #37, #38, #33, ...

........................................................................
.............................. CYCLE    9 ..............................
........................................................................
   1    -83.3740975 -0.833741E+02  0.773E-03    2.80       0.0  T
   2    -83.3740975 -0.181411E-07  0.455E-03    2.80       2.8  T
   3    -83.3740974  0.688128E-07  0.123E-03    2.80      10.5  T
   4    -83.3740975 -0.793497E-07  0.181E-04    2.80      71.3  T
   5    -83.3740975 -0.939963E-09  0.952E-05    2.80     135.6  T
     SCC iter.                  ...        0 min,  0.014 sec
     gradient                   ...        0 min,  0.028 sec
 * total energy  :   -82.2996468 Eh     change       -0.3837659E-04 Eh
   gradient norm :     0.0039866 Eh/α   predicted    -0.2212328E-04 ( -42.35%)
   displ. norm   :     0.0651316 α      lambda       -0.5857131E-03
   maximum displ.:     0.0384355 α      in ANC's #37, #38, #33, ...

........................................................................
.............................. CYCLE   10 ..............................
........................................................................
   1    -83.3745563 -0.833746E+02  0.305E-02    2.80       0.0  T
   2    -83.3745568 -0.557654E-06  0.181E-02    2.80       1.0  T
   3    -83.3745553  0.148430E-05  0.521E-03    2.80       2.5  T
   4    -83.3745571 -0.170634E-05  0.992E-04    2.80      13.0  T
   5    -83.3745571 -0.414051E-07  0.430E-04    2.80      30.0  T
   6    -83.3745571 -0.274653E-08  0.219E-04    2.80      59.0  T
     SCC iter.                  ...        0 min,  0.016 sec
     gradient                   ...        0 min,  0.028 sec
 * total energy  :   -82.2997347 Eh     change       -0.8793730E-04 Eh
   gradient norm :     0.0083029 Eh/α   predicted    -0.7506811E-04 ( -14.63%)
   displ. norm   :     0.0216774 α      lambda       -0.1201400E-03
   maximum displ.:     0.0115234 α      in ANC's #37, #38, #33, ...

........................................................................
.............................. CYCLE   11 ..............................
........................................................................
   1    -83.3747873 -0.833748E+02  0.103E-02    2.80       0.0  T
   2    -83.3747874 -0.994234E-07  0.613E-03    2.80       2.1  T
   3    -83.3747871  0.226470E-06  0.190E-03    2.80       6.8  T
   4    -83.3747874 -0.270440E-06  0.279E-04    2.80      46.3  T
   5    -83.3747874 -0.247722E-08  0.149E-04    2.80      86.4  T
     SCC iter.                  ...        0 min,  0.014 sec
     gradient                   ...        0 min,  0.028 sec
 * total energy  :   -82.2997510 Eh     change       -0.1632092E-04 Eh
   gradient norm :     0.0038726 Eh/α   predicted    -0.1231682E-04 ( -24.53%)
   displ. norm   :     0.0131644 α      lambda       -0.7325679E-04
   maximum displ.:     0.0052221 α      in ANC's #38, #37, #6, ...

........................................................................
.............................. CYCLE   12 ..............................
........................................................................
   1    -83.3750618 -0.833751E+02  0.603E-03    2.80       0.0  T
   2    -83.3750619 -0.834322E-07  0.359E-03    2.80       3.6  T
   3    -83.3750618  0.116373E-06  0.178E-03    2.80       7.2  T
   4    -83.3750620 -0.165692E-06  0.164E-04    2.80      78.6  T
   5    -83.3750620 -0.707203E-09  0.923E-05    2.80     139.9  T
     SCC iter.                  ...        0 min,  0.014 sec
     gradient                   ...        0 min,  0.028 sec
 * total energy  :   -82.2997595 Eh     change       -0.8448033E-05 Eh
   gradient norm :     0.0014994 Eh/α   predicted    -0.6234811E-05 ( -26.20%)
   displ. norm   :     0.0190935 α      lambda       -0.6503644E-04
   maximum displ.:     0.0068139 α      in ANC's #6, #11, #29, ...

........................................................................
.............................. CYCLE   13 ..............................
........................................................................
   1    -83.3754756 -0.833755E+02  0.652E-03    2.80       0.0  T
   2    -83.3754757 -0.731630E-07  0.391E-03    2.80       3.3  T
   3    -83.3754756  0.112000E-06  0.181E-03    2.80       7.1  T
   4    -83.3754757 -0.138040E-06  0.345E-04    2.80      37.4  T
   5    -83.3754757 -0.492271E-08  0.141E-04    2.80      91.5  T
     SCC iter.                  ...        0 min,  0.014 sec
     gradient                   ...        0 min,  0.028 sec
 * total energy  :   -82.2997689 Eh     change       -0.9408155E-05 Eh
   gradient norm :     0.0047487 Eh/α   predicted    -0.4745175E-05 ( -49.56%)
   displ. norm   :     0.0146516 α      lambda       -0.8068021E-04
   maximum displ.:     0.0056973 α      in ANC's #6, #11, #29, ...

........................................................................
.............................. CYCLE   14 ..............................
........................................................................
   1    -83.3756738 -0.833757E+02  0.425E-03    2.80       0.0  T
   2    -83.3756739 -0.227102E-07  0.254E-03    2.80       5.1  T
   3    -83.3756738  0.547010E-07  0.123E-03    2.80      10.5  T
   4    -83.3756739 -0.640095E-07  0.220E-04    2.80      58.7  T
   5    -83.3756739 -0.241236E-08  0.770E-05    2.80     167.6  T
     SCC iter.                  ...        0 min,  0.014 sec
     gradient                   ...        0 min,  0.028 sec
 * total energy  :   -82.2997775 Eh     change       -0.8656014E-05 Eh
   gradient norm :     0.0038045 Eh/α   predicted    -0.5131841E-05 ( -40.71%)
   displ. norm   :     0.0416141 α      lambda       -0.2104474E-03
   maximum displ.:     0.0168040 α      in ANC's #6, #11, #29, ...

........................................................................
.............................. CYCLE   15 ..............................
........................................................................
   1    -83.3760324 -0.833760E+02  0.113E-02    2.80       0.0  T
   2    -83.3760325 -0.133437E-06  0.676E-03    2.80       1.9  T
   3    -83.3760320  0.477102E-06  0.348E-03    2.80       3.7  T
   4    -83.3760326 -0.564696E-06  0.509E-04    2.80      25.4  T
   5    -83.3760326 -0.121551E-07  0.209E-04    2.80      61.8  T
     SCC iter.                  ...        0 min,  0.014 sec
     gradient                   ...        0 min,  0.028 sec
 * total energy  :   -82.2997921 Eh     change       -0.1453596E-04 Eh
   gradient norm :     0.0018872 Eh/α   predicted    -0.1196296E-04 ( -17.70%)
   displ. norm   :     0.0278116 α      lambda       -0.6909602E-04
   maximum displ.:     0.0119697 α      in ANC's #6, #11, #29, ...

........................................................................
.............................. CYCLE   16 ..............................
........................................................................
   1    -83.3760841 -0.833761E+02  0.747E-03    2.80       0.0  T
   2    -83.3760841 -0.274325E-07  0.455E-03    2.80       2.8  T
   3    -83.3760840  0.181398E-06  0.195E-03    2.80       6.6  T
   4    -83.3760842 -0.205831E-06  0.217E-04    2.80      59.5  T
   5    -83.3760842 -0.168190E-08  0.113E-04    2.80     114.6  T
     SCC iter.                  ...        0 min,  0.014 sec
     gradient                   ...        0 min,  0.028 sec
 * total energy  :   -82.2997999 Eh     change       -0.7882089E-05 Eh
   gradient norm :     0.0019672 Eh/α   predicted    -0.3540638E-05 ( -55.08%)
   displ. norm   :     0.0329996 α      lambda       -0.1202603E-03
   maximum displ.:     0.0148052 α      in ANC's #6, #29, #11, ...

........................................................................
.............................. CYCLE   17 ..............................
........................................................................
   1    -83.3759365 -0.833759E+02  0.107E-02    2.79       0.0  T
   2    -83.3759365 -0.630845E-07  0.648E-03    2.79       2.0  T
   3    -83.3759364  0.167647E-06  0.183E-03    2.79       7.1  T
   4    -83.3759366 -0.182263E-06  0.456E-04    2.79      28.3  T
   5    -83.3759366 -0.959587E-08  0.150E-04    2.79      86.2  T
     SCC iter.                  ...        0 min,  0.015 sec
     gradient                   ...        0 min,  0.028 sec
 * total energy  :   -82.2998115 Eh     change       -0.1151279E-04 Eh
   gradient norm :     0.0022194 Eh/α   predicted    -0.5590718E-05 ( -51.44%)
   displ. norm   :     0.0225667 α      lambda       -0.7298506E-04
   maximum displ.:     0.0105465 α      in ANC's #6, #11, #29, ...

........................................................................
.............................. CYCLE   18 ..............................
........................................................................
   1    -83.3759048 -0.833759E+02  0.677E-03    2.79       0.0  T
   2    -83.3759049 -0.113821E-07  0.407E-03    2.79       3.2  T
   3    -83.3759048  0.309805E-07  0.794E-04    2.79      16.3  T
   4    -83.3759049 -0.342840E-07  0.182E-04    2.79      70.8  T
     SCC iter.                  ...        0 min,  0.011 sec
     gradient                   ...        0 min,  0.028 sec
 * total energy  :   -82.2998170 Eh     change       -0.5523135E-05 Eh
   gradient norm :     0.0016856 Eh/α   predicted    -0.3105012E-05 ( -43.78%)
   displ. norm   :     0.0417051 α      lambda       -0.1071794E-03
   maximum displ.:     0.0201001 α      in ANC's #6, #11, #29, ...

........................................................................
.............................. CYCLE   19 ..............................
........................................................................
   1    -83.3758409 -0.833758E+02  0.127E-02    2.79       0.0  T
   2    -83.3758409 -0.473277E-07  0.756E-03    2.79       1.7  T
   3    -83.3758405  0.419451E-06  0.282E-03    2.79       4.6  T
   4    -83.3758410 -0.467538E-06  0.295E-04    2.79      43.7  T
   5    -83.3758410 -0.253935E-08  0.156E-04    2.79      82.9  T
     SCC iter.                  ...        0 min,  0.014 sec
     gradient                   ...        0 min,  0.028 sec
 * total energy  :   -82.2998227 Eh     change       -0.5705044E-05 Eh
   gradient norm :     0.0011413 Eh/α   predicted    -0.3936803E-05 ( -30.99%)
   displ. norm   :     0.0057933 α      lambda       -0.3687184E-04
   maximum displ.:     0.0019856 α      in ANC's #29, #17, #34, ...

........................................................................
.............................. CYCLE   20 ..............................
........................................................................
   1    -83.3758860 -0.833759E+02  0.296E-03    2.79       0.0  T
   2    -83.3758861 -0.721218E-08  0.180E-03    2.79       7.2  T
   3    -83.3758860  0.445105E-07  0.997E-04    2.79      13.0  T
   4    -83.3758861 -0.520385E-07  0.133E-04    2.79      96.8  T
     SCC iter.                  ...        0 min,  0.011 sec
     gradient                   ...        0 min,  0.028 sec
 * total energy  :   -82.2998258 Eh     change       -0.3085864E-05 Eh
   gradient norm :     0.0007013 Eh/α   predicted    -0.1264044E-05 ( -59.04%)
   displ. norm   :     0.0058300 α      lambda       -0.3258328E-04
   maximum displ.:     0.0020000 α      in ANC's #29, #17, #34, ...

   *** GEOMETRY OPTIMIZATION CONVERGED AFTER 20 ITERATIONS ***

------------------------------------------------------------------------
 total energy gain   :        -0.1789819 Eh     -112.3128 kcal/mol
 total RMSD          :         0.0557943 a0        0.0295 Å
 total power (kW/mol):       -23.4958446 (step) -445.2057 (real)
------------------------------------------------------------------------

 ANCopt (total)                0 d,  0 h,  0 min,  1.056 sec
 optimizer setup                ...        0 min,  0.000 sec (  0.009%)
 model hessian                  ...        0 min,  0.033 sec (  3.108%)
 ANC generation                 ...        0 min,  0.003 sec (  0.260%)
 coordinate transformation      ...        0 min,  0.000 sec (  0.027%)
 single point calculation       ...        0 min,  1.012 sec ( 95.858%)
 optimization log               ...        0 min,  0.004 sec (  0.397%)
 hessian update                 ...        0 min,  0.000 sec (  0.044%)
 rational function              ...        0 min,  0.002 sec (  0.220%)

================
 final structure:
================
60
 xtb: 6.5.0 (homebrew)
C            3.46150975488442      -37.75881556566092       15.92146224164704
C            3.71245995300365      -38.14193378703041       17.37829281059381
O            3.24513792034437      -37.09660873326496       18.23125978880888
C            2.89067003798731      -39.39246939385299       17.71518292169557
C            5.22798247813349      -38.27709627916855       17.77763971936713
C            5.73698186874668      -39.71132246333526       17.90240867374056
C            6.16412622325492      -37.48953126368525       16.85281871650280
O            5.28434871364214      -37.64579710421798       19.05761406300607
B            4.15038882915122      -36.91024761414218       19.23946273945537
C            3.90264143652486      -35.96811321257009       20.46289295555543
C            4.93745009127618      -35.85885618668050       21.42651277717994
C            4.97261229992838      -34.97026712197675       22.47655395082012
H            5.91170057879822      -34.88327787456492       23.01001142593738
C            3.81924278760916      -34.24939406675830       23.09139397724195
H            4.05640230134401      -33.85203141165221       24.07514995072416
C            2.46005726970303      -34.86956204319639       23.11876884496469
B            1.71094103412966      -34.88924989724226       24.48528207020435
O            2.21635669886277      -34.38009394675205       25.65074224473037
C            1.34764651472691      -34.74222526374709       26.72358788912326
C            1.20039465940906      -33.56428140620815       27.68400572942942
C            2.01451442303106      -35.91069559006400       27.46091284812616
C            0.02575285463946      -35.16262453171637       25.98403882918633
C           -0.99121511095276      -34.01872983020436       25.88157405963332
C           -0.66682285382576      -36.39906561478760       26.55259765290612
O            0.47168526630986      -35.43980085151302       24.65771721475060
C            1.89745465562081      -35.42897734916335       22.04625223220521
C            2.46824041037212      -35.53838952109486       20.69408776694890
H            1.78890650339670      -36.03142055346571       20.00547607640959
C            3.23497030913651      -34.43762573380707       20.04230459613859
C            3.85408574256683      -33.34636570441002       20.67955452954777
C            4.26739008944620      -33.34665035106035       21.99470775836842
H            4.88608893910390      -32.51451611926018       22.30905747370093
H            2.38897875549795      -37.70496873576847       15.75143049303617
H            3.88521839023990      -38.50831696225215       15.25873898623328
H            3.88727488447018      -36.78782713594171       15.69006295677694
H            1.83808476986764      -39.16621075232105       17.56071671603112
H            3.02624280124821      -39.66202890862075       18.75949057965794
H            3.16897595313022      -40.22784510057298       17.07982979960263
H            5.63136087387819      -40.23421018096073       16.95583180718680
H            5.20197324168597      -40.25033797431723       18.67739870647620
H            6.78883418625910      -39.68672156185379       18.17586875546406
H            6.20186824151468      -37.93247681187073       15.86227465516609
H            7.16244632263273      -37.49963084614131       17.28404950694290
H            5.84089052746528      -36.45401709289411       16.78186426832859
H            5.87169520263702      -36.32356596503467       21.13947655809167
H            2.16125640119892      -33.36928070032777       28.15386106731922
H            0.47306916216783      -33.79970863107872       28.45635500997805
H            0.89390505590632      -32.66531645979862       27.15920108336015
H            2.99564670322079      -35.58919295017568       27.80296386884579
H            2.15370348842997      -36.75048868570308       26.78473158863682
H            1.42552945470584      -36.22140434018439       28.31863726651966
H           -1.41177105173846      -33.77706615914128       26.85306173223723
H           -1.79260066541566      -34.33029820384166       25.21561465689760
H           -0.52278859706536      -33.13689364659631       25.45179039184960
H           -0.93716675917472      -36.23636265881490       27.59235763987480
H           -0.03001248737992      -37.27423743424609       26.47488157415489
H           -1.57061502521356      -36.58900806292605       25.97904288638280
H            0.91457162810202      -35.86497238273065       22.16516000006425
H            3.07810441427839      -34.34753474256811       18.97549888657611
H            4.27887144714505      -32.59110052706269       20.03025402965829

 Bond Distances (Angstroems)
 ---------------------------
C1-C2=1.5271         C1-H33=1.0873        C1-H34=1.0865        C1-H35=1.0852        C2-C1=1.5271         C2-O3=1.4278         
C2-C4=1.5338         C2-C5=1.5731         O3-C2=1.4278         O3-B9=1.3677         C4-C2=1.5338         C4-H36=1.0877        
C4-H37=1.0870        C4-H38=1.0858        C5-C2=1.5731         C5-C6=1.5270         C5-C7=1.5336         C5-O8=1.4283         
C6-C5=1.5270         C6-H39=1.0865        C6-H40=1.0851        C6-H41=1.0871        C7-C5=1.5336         C7-H42=1.0857        
C7-H43=1.0875        C7-H44=1.0871        O8-C5=1.4283         O8-B9=1.3638         B9-O3=1.3677         B9-O8=1.3638         
B9-C10=1.5639        C10-B9=1.5639        C10-C11=1.4182       C10-C27=1.5151       C10-C29=1.7219       C11-C10=1.4182       
C11-C12=1.3760       C11-H45=1.0822       C12-C11=1.3760       C12-H13=1.0835       C12-C14=1.4926       C12-C31=1.8346       
H13-C12=1.0835       C14-C12=1.4926       C14-H15=1.0872       C14-C16=1.4942       C14-C31=1.4895       H15-C14=1.0872       
C16-C14=1.4942       C16-B17=1.5585       C16-C26=1.3341       B17-C16=1.5585       B17-O18=1.3686       B17-O25=1.3670       
O18-B17=1.3686       O18-C19=1.4272       C19-O18=1.4272       C19-C20=1.5270       C19-C21=1.5342       C19-C22=1.5720       
C20-C19=1.5270       C20-H46=1.0872       C20-H47=1.0867       C20-H48=1.0851       C21-C19=1.5342       C21-H49=1.0877       
C21-H50=1.0871       C21-H51=1.0859       C22-C19=1.5720       C22-C23=1.5340       C22-C24=1.5270       C22-O25=1.4265       
C23-C22=1.5340       C23-H52=1.0858       C23-H53=1.0876       C23-H54=1.0871       C24-C22=1.5270       C24-H55=1.0866       
C24-H56=1.0851       C24-H57=1.0871       O25-B17=1.3670       O25-C22=1.4265       C26-C16=1.3341       C26-C27=1.4718       
C26-H58=1.0818       C27-C10=1.5151       C27-C26=1.4718       C27-H28=1.0857       C27-C29=1.4914       H28-C27=1.0857       
C29-C10=1.7219       C29-C27=1.4914       C29-C30=1.4072       C29-H59=1.0820       C30-C29=1.4072       C30-C31=1.3786       
C30-H60=1.0828       C31-C12=1.8346       C31-C14=1.4895       C31-C30=1.3786       C31-H32=1.0835       H32-C31=1.0835       
H33-C1=1.0873        H34-C1=1.0865        H35-C1=1.0852        H36-C4=1.0877        H37-C4=1.0870        H38-C4=1.0858        
H39-C6=1.0865        H40-C6=1.0851        H41-C6=1.0871        H42-C7=1.0857        H43-C7=1.0875        H44-C7=1.0871        
H45-C11=1.0822       H46-C20=1.0872       H47-C20=1.0867       H48-C20=1.0851       H49-C21=1.0877       H50-C21=1.0871       
H51-C21=1.0859       H52-C23=1.0858       H53-C23=1.0876       H54-C23=1.0871       H55-C24=1.0866       H56-C24=1.0851       
H57-C24=1.0871       H58-C26=1.0818       H59-C29=1.0820       H60-C30=1.0828       
 C  H  Rav=1.0858 sigma=0.0017  Rmin=1.0818  Rmax=1.0877    32
 C  B  Rav=1.5612 sigma=0.0027  Rmin=1.5585  Rmax=1.5639     2
 C  C  Rav=1.5137 sigma=0.1041  Rmin=1.3341  Rmax=1.8346    23
 O  B  Rav=1.3668 sigma=0.0018  Rmin=1.3638  Rmax=1.3686     4
 O  C  Rav=1.4274 sigma=0.0007  Rmin=1.4265  Rmax=1.4283     4

 selected bond angles (degree)
 --------------------
H33-C1-C2=108.89               H34-C1-C2=110.17               H34-C1-H33=108.87              H35-C1-C2=111.31               
H35-C1-H33=108.02              H35-C1-H34=109.52              O3-C2-C1=109.42                C4-C2-C1=109.03                
C4-C2-O3=106.88                C5-C2-C1=114.96                C5-C2-O3=103.10                C5-C2-C4=112.98                
B9-O3-C2=108.87                H36-C4-C2=108.52               H37-C4-C2=110.26               H37-C4-H36=107.98              
H38-C4-C2=111.19               H38-C4-H36=108.97              H38-C4-H37=109.84              C6-C5-C2=115.00                
C7-C5-C2=113.01                C7-C5-C6=109.16                O8-C5-C2=103.15                O8-C5-C6=109.19                
O8-C5-C7=106.82                H39-C6-C5=110.39               H40-C6-C5=111.14               H40-C6-H39=109.59              
H41-C6-C5=108.77               H41-C6-H39=108.91              H41-C6-H40=107.98              H42-C7-C5=111.22               
H43-C7-C5=108.45               H43-C7-H42=109.03              H44-C7-C5=110.31               H44-C7-H42=109.84              
H44-C7-H43=107.92              B9-O8-C5=108.97                O8-B9-O3=112.24                C10-B9-O3=123.63               
C10-B9-O8=124.12               C11-C10-B9=117.54              C27-C10-B9=116.12              C27-C10-C11=124.42             
C29-C10-B9=113.94              C29-C10-C11=112.36             C29-C10-C27= 54.42             

 selected dihedral angles (degree)
 ---------------------------------
O3-C2-C1-H33=294.73           O3-C2-C1-H34=175.40           O3-C2-C1-H35= 53.71           C4-C2-C1-H33= 51.29           
C4-C2-C1-H34=291.96           C4-C2-C1-H35=170.27           C5-C2-C1-H33=179.32           C5-C2-C1-H34= 59.99           
C5-C2-C1-H35=298.30           B9-O3-C2-C1=221.32            B9-O3-C2-C4=103.40            B9-O3-C2-C5=344.10            
H36-C4-C2-C1=300.15           H36-C4-C2-O3= 58.33           H36-C4-C2-C5=171.02           H37-C4-C2-C1=182.07           
H37-C4-C2-O3=300.24           H37-C4-C2-C5= 52.93           H38-C4-C2-C1= 59.99           H38-C4-C2-O3=178.16           
H38-C4-C2-C5=290.85           C6-C5-C2-C1=256.63            C6-C5-C2-O3=137.63            C6-C5-C2-C4= 22.64            
C7-C5-C2-C1= 22.88            C7-C5-C2-O3=263.88            C7-C5-C2-C4=148.90            O8-C5-C2-C1=137.85            
O8-C5-C2-O3= 18.85            O8-C5-C2-C4=263.86            H39-C6-C5-C2= 60.32           H39-C6-C5-C7=292.11           
H39-C6-C5-O8=175.67           H40-C6-C5-C2=298.50           H40-C6-C5-C7=170.29           H40-C6-C5-O8= 53.85           
H41-C6-C5-C2=179.76           H41-C6-C5-C7= 51.55           H41-C6-C5-O8=295.11           H42-C7-C5-C2=290.79           
H42-C7-C5-C6= 60.10           H42-C7-C5-O8=178.04           H43-C7-C5-C2=170.90           H43-C7-C5-C6=300.22           
H43-C7-C5-O8= 58.16           H44-C7-C5-C2= 52.92           H44-C7-C5-C6=182.23           H44-C7-C5-O8=300.17           
B9-O8-C5-C2=344.53            B9-O8-C5-C6=221.78            B9-O8-C5-C7=103.87            O8-B9-O3-C2=  7.10            
C10-B9-O3-C2=187.51           O3-B9-O8-C5=  6.33            C10-B9-O8-C5=185.91           C11-C10-B9-O3=180.74          
C11-C10-B9-O8=  1.21          C27-C10-B9-O3= 15.81          C27-C10-B9-O8=196.27          C29-C10-B9-O3=315.24          
C29-C10-B9-O8=135.71          
           -------------------------------------------------
          |                Final Singlepoint                |
           -------------------------------------------------

          ...................................................
          :                      SETUP                      :
          :.................................................:
          :  # basis functions                 144          :
          :  # atomic orbitals                 144          :
          :  # shells                           88          :
          :  # electrons                       150          :
          :  max. iterations                   250          :
          :  Hamiltonian                  GFN2-xTB          :
          :  restarted?                      false          :
          :  GBSA solvation                  false          :
          :  PC potential                    false          :
          :  electronic temp.          300.0000000     K    :
          :  accuracy                    1.0000000          :
          :  -> integral cutoff          0.2500000E+02      :
          :  -> integral neglect         0.1000000E-07      :
          :  -> SCF convergence          0.1000000E-05 Eh   :
          :  -> wf. convergence          0.1000000E-03 e    :
          :  Broyden damping             0.4000000          :
          ...................................................

 iter      E             dE          RMSdq      gap      omega  full diag
   1    -83.3758861 -0.833759E+02  0.488E-05    2.79       0.0  T
   2    -83.3758861 -0.987654E-11  0.371E-05    2.79     347.5  T
   3    -83.3758861 -0.454747E-10  0.201E-05    2.79     643.2  T

   *** convergence criteria satisfied after 3 iterations ***

         #    Occupation            Energy/Eh            Energy/eV
      -------------------------------------------------------------
         1        2.0000           -0.6920134             -18.8306
       ...           ...                  ...                  ...
        69        2.0000           -0.4075017             -11.0887
        70        2.0000           -0.4006461             -10.9021
        71        2.0000           -0.3975102             -10.8168
        72        2.0000           -0.3953430             -10.7578
        73        2.0000           -0.3798412             -10.3360
        74        2.0000           -0.3664831              -9.9725
        75        2.0000           -0.3270751              -8.9002 (HOMO)
        76                         -0.2244707              -6.1082 (LUMO)
        77                         -0.2074874              -5.6460
        78                         -0.1608104              -4.3759
        79                         -0.1142004              -3.1076
        80                         -0.0926699              -2.5217
       ...                                ...                  ...
       144                          0.6961017              18.9419
      -------------------------------------------------------------
                  HL-Gap            0.1026044 Eh            2.7920 eV
             Fermi-level           -0.2757729 Eh           -7.5042 eV

 SCC (total)                   0 d,  0 h,  0 min,  0.043 sec
 SCC setup                      ...        0 min,  0.000 sec (  0.532%)
 Dispersion                     ...        0 min,  0.000 sec (  0.898%)
 classical contributions        ...        0 min,  0.000 sec (  0.402%)
 integral evaluation            ...        0 min,  0.006 sec ( 13.896%)
 iterations                     ...        0 min,  0.008 sec ( 19.596%)
 molecular gradient             ...        0 min,  0.028 sec ( 63.880%)
 printout                       ...        0 min,  0.000 sec (  0.792%)

         :::::::::::::::::::::::::::::::::::::::::::::::::::::
         ::                     SUMMARY                     ::
         :::::::::::::::::::::::::::::::::::::::::::::::::::::
         :: total energy             -82.299825773371 Eh    ::
         :: gradient norm              0.000700761171 Eh/a0 ::
         :: HOMO-LUMO gap              2.792008892171 eV    ::
         ::.................................................::
         :: SCC energy               -83.375886060768 Eh    ::
         :: -> isotropic ES            0.148325196854 Eh    ::
         :: -> anisotropic ES          0.010990705847 Eh    ::
         :: -> anisotropic XC          0.026023180278 Eh    ::
         :: -> dispersion             -0.060964977060 Eh    ::
         :: repulsion energy           1.075413846777 Eh    ::
         :: add. restraining           0.000012003833 Eh    ::
         :: total charge              -0.000000000000 e     ::
         :::::::::::::::::::::::::::::::::::::::::::::::::::::

           -------------------------------------------------
          |                Property Printout                |
           -------------------------------------------------

    * Orbital Energies and Occupations

         #    Occupation            Energy/Eh            Energy/eV
      -------------------------------------------------------------
         1        2.0000           -0.6920134             -18.8306
       ...           ...                  ...                  ...
        63        2.0000           -0.4363143             -11.8727
        64        2.0000           -0.4353841             -11.8474
        65        2.0000           -0.4301354             -11.7046
        66        2.0000           -0.4229892             -11.5101
        67        2.0000           -0.4188608             -11.3978
        68        2.0000           -0.4137790             -11.2595
        69        2.0000           -0.4075017             -11.0887
        70        2.0000           -0.4006461             -10.9021
        71        2.0000           -0.3975102             -10.8168
        72        2.0000           -0.3953430             -10.7578
        73        2.0000           -0.3798412             -10.3360
        74        2.0000           -0.3664831              -9.9725
        75        2.0000           -0.3270751              -8.9002 (HOMO)
        76                         -0.2244707              -6.1082 (LUMO)
        77                         -0.2074874              -5.6460
        78                         -0.1608104              -4.3759
        79                         -0.1142004              -3.1076
        80                         -0.0926699              -2.5217
        81                         -0.0134852              -0.3670
        82                          0.0042346               0.1152
        83                          0.0106490               0.2898
        84                          0.0253437               0.6896
        85                          0.0300186               0.8168
        86                          0.0546348               1.4867
       ...                                ...                  ...
       144                          0.6961017              18.9419
      -------------------------------------------------------------
                  HL-Gap            0.1026044 Eh            2.7920 eV
             Fermi-level           -0.2757729 Eh           -7.5042 eV

     #   Z          covCN         q      C6AA      α(0)
     1   6 C        3.755    -0.117    22.799     6.808
     2   6 C        3.858     0.129    18.447     6.108
     3   8 O        1.638    -0.376    20.402     6.097
     4   6 C        3.755    -0.116    22.786     6.806
     5   6 C        3.859     0.129    18.453     6.109
     6   6 C        3.755    -0.118    22.814     6.811
     7   6 C        3.755    -0.116    22.779     6.805
     8   8 O        1.638    -0.370    20.290     6.080
     9   5 B        2.657     0.439    15.490     6.628
    10   6 C        3.774    -0.060    21.684     6.635
    11   6 C        2.891    -0.063    29.563     8.914
    12   6 C        3.683    -0.013    21.010     6.563
    13   1 H        0.925     0.028     2.620     2.531
    14   6 C        3.865    -0.018    20.847     6.493
    15   1 H        0.925     0.043     2.404     2.425
    16   6 C        2.864    -0.084    30.104     8.994
    17   5 B        2.663     0.432    15.553     6.637
    18   8 O        1.638    -0.372    20.332     6.087
    19   6 C        3.860     0.129    18.454     6.109
    20   6 C        3.755    -0.117    22.797     6.808
    21   6 C        3.755    -0.116    22.776     6.805
    22   6 C        3.860     0.129    18.454     6.109
    23   6 C        3.755    -0.116    22.783     6.806
    24   6 C        3.755    -0.117    22.803     6.809
    25   8 O        1.638    -0.372    20.317     6.084
    26   6 C        2.896    -0.026    28.653     8.776
    27   6 C        3.862    -0.016    20.816     6.488
    28   1 H        0.925     0.042     2.421     2.433
    29   6 C        3.803    -0.007    20.708     6.479
    30   6 C        2.888    -0.067    29.659     8.929
    31   6 C        3.685    -0.010    20.961     6.555
    32   1 H        0.925     0.028     2.617     2.530
    33   1 H        0.925     0.055     2.260     2.351
    34   1 H        0.925     0.040     2.443     2.444
    35   1 H        0.925     0.052     2.300     2.372
    36   1 H        0.925     0.053     2.286     2.365
    37   1 H        0.925     0.044     2.393     2.419
    38   1 H        0.925     0.043     2.408     2.427
    39   1 H        0.925     0.041     2.439     2.442
    40   1 H        0.925     0.053     2.286     2.365
    41   1 H        0.925     0.055     2.253     2.347
    42   1 H        0.925     0.043     2.404     2.425
    43   1 H        0.925     0.053     2.280     2.361
    44   1 H        0.925     0.044     2.402     2.423
    45   1 H        0.925     0.029     2.604     2.524
    46   1 H        0.925     0.054     2.272     2.357
    47   1 H        0.925     0.039     2.456     2.451
    48   1 H        0.925     0.052     2.296     2.370
    49   1 H        0.925     0.052     2.297     2.370
    50   1 H        0.925     0.044     2.400     2.423
    51   1 H        0.925     0.042     2.421     2.433
    52   1 H        0.925     0.042     2.418     2.432
    53   1 H        0.925     0.052     2.292     2.367
    54   1 H        0.925     0.044     2.398     2.422
    55   1 H        0.925     0.040     2.455     2.450
    56   1 H        0.925     0.052     2.295     2.369
    57   1 H        0.925     0.054     2.267     2.355
    58   1 H        0.925     0.038     2.473     2.459
    59   1 H        0.925     0.034     2.537     2.491
    60   1 H        0.925     0.017     2.775     2.605

 Mol. C6AA /au·bohr⁶  :      32279.633198
 Mol. C8AA /au·bohr⁸  :     745906.239121
 Mol. α(0) /au        :        268.869982


Wiberg/Mayer (AO) data.
largest (>0.10) Wiberg bond orders for each atom

 ---------------------------------------------------------------------------
     #   Z sym  total        # sym  WBO       # sym  WBO       # sym  WBO
 ---------------------------------------------------------------------------
     1   6 C    3.994 --     2 C    0.997    34 H    0.984    33 H    0.982
                            35 H    0.982
     2   6 C    3.942 --     1 C    0.997     4 C    0.991     3 O    0.951
                             5 C    0.936
     3   8 O    2.227 --     9 B    1.127     2 C    0.951
     4   6 C    3.994 --     2 C    0.991    38 H    0.984    37 H    0.984
                            36 H    0.983
     5   6 C    3.941 --     6 C    0.997     7 C    0.991     8 O    0.950
                             2 C    0.936
     6   6 C    3.994 --     5 C    0.997    39 H    0.984    41 H    0.982
                            40 H    0.982
     7   6 C    3.994 --     5 C    0.991    42 H    0.984    44 H    0.984
                            43 H    0.983
     8   8 O    2.236 --     9 B    1.138     5 C    0.950
     9   5 B    3.378 --     8 O    1.138     3 O    1.127    10 C    0.997
    10   6 C    3.933 --    11 C    1.276     9 B    0.997    27 C    0.889
                            29 C    0.582
    11   6 C    3.981 --    12 C    1.492    10 C    1.276    45 H    0.964
                            30 C    0.144
    12   6 C    3.962 --    11 C    1.492    13 H    0.971    14 C    0.936
                            31 C    0.419
    13   1 H    0.999 --    12 C    0.971
    14   6 C    3.972 --    16 C    1.004    15 H    0.968    31 C    0.946
                            12 C    0.936
    15   1 H    0.998 --    14 C    0.968
    16   6 C    3.977 --    26 C    1.827    14 C    1.004    17 B    1.001
    17   5 B    3.376 --    25 O    1.129    18 O    1.126    16 C    1.001
    18   8 O    2.231 --    17 B    1.126    19 C    0.953
    19   6 C    3.943 --    20 C    0.997    21 C    0.991    18 O    0.953
                            22 C    0.936
    20   6 C    3.994 --    19 C    0.997    47 H    0.985    46 H    0.983
                            48 H    0.982
    21   6 C    3.994 --    19 C    0.991    51 H    0.984    50 H    0.984
                            49 H    0.983
    22   6 C    3.943 --    24 C    0.996    23 C    0.990    25 O    0.953
                            19 C    0.936
    23   6 C    3.995 --    22 C    0.990    52 H    0.985    54 H    0.984
                            53 H    0.983
    24   6 C    3.994 --    22 C    0.996    55 H    0.985    57 H    0.983
                            56 H    0.982
    25   8 O    2.233 --    17 B    1.129    22 C    0.953
    26   6 C    3.989 --    16 C    1.827    27 C    1.043    58 H    0.965
    27   6 C    3.964 --    26 C    1.043    28 H    0.969    29 C    0.934
                            10 C    0.889
    28   1 H    0.998 --    27 C    0.969
    29   6 C    3.950 --    30 C    1.301    59 H    0.972    27 C    0.934
                            10 C    0.582
    30   6 C    3.973 --    31 C    1.474    29 C    1.301    60 H    0.966
                            11 C    0.144
    31   6 C    3.956 --    30 C    1.474    32 H    0.972    14 C    0.946
                            12 C    0.419
    32   1 H    0.999 --    31 C    0.972
    33   1 H    0.997 --     1 C    0.982
    34   1 H    0.998 --     1 C    0.984
    35   1 H    0.997 --     1 C    0.982
    36   1 H    0.997 --     4 C    0.983
    37   1 H    0.998 --     4 C    0.984
    38   1 H    0.998 --     4 C    0.984
    39   1 H    0.998 --     6 C    0.984
    40   1 H    0.997 --     6 C    0.982
    41   1 H    0.997 --     6 C    0.982
    42   1 H    0.998 --     7 C    0.984
    43   1 H    0.997 --     7 C    0.983
    44   1 H    0.998 --     7 C    0.984
    45   1 H    0.999 --    11 C    0.964
    46   1 H    0.997 --    20 C    0.983
    47   1 H    0.998 --    20 C    0.985
    48   1 H    0.997 --    20 C    0.982
    49   1 H    0.997 --    21 C    0.983
    50   1 H    0.998 --    21 C    0.984
    51   1 H    0.998 --    21 C    0.984
    52   1 H    0.998 --    23 C    0.985
    53   1 H    0.997 --    23 C    0.983
    54   1 H    0.998 --    23 C    0.984
    55   1 H    0.998 --    24 C    0.985
    56   1 H    0.997 --    24 C    0.982
    57   1 H    0.997 --    24 C    0.983
    58   1 H    0.998 --    26 C    0.965
    59   1 H    0.998 --    29 C    0.972
    60   1 H    0.999 --    30 C    0.966
 ---------------------------------------------------------------------------

Topologies differ in total number of bonds
Writing topology from bond orders to xtbtopo.mol

molecular dipole:
                 x           y           z       tot (Debye)
 q only:       -0.254      -0.542      -0.027
   full:       -0.144      -0.612      -0.101       1.620
molecular quadrupole (traceless):
                xx          xy          yy          xz          yz          zz
 q only:      -47.977      18.220      68.651     -28.535     -20.096     -20.673
  q+dip:      -48.453       8.993      77.278     -22.609     -14.686     -28.824
   full:      -49.188       7.774      79.072     -23.735     -16.027     -29.884

           -------------------------------------------------
          |                Geometry Summary                 |
           -------------------------------------------------

      molecular mass/u    :      382.1099696
   center of mass at/Å    :        2.9446106     -35.9322635      21.8343553
  moments of inertia/u·Å² :        0.1192333E+04   0.6808186E+04   0.7135097E+04
rotational constants/cm⁻¹ :        0.1413836E-01   0.2476083E-02   0.2362635E-02

 * 60 selected distances

     #   Z          #   Z                                           value/Å
     1   6 C        2   6 C                                       1.5271252
     2   6 C        3   8 O                                       1.4278121
     2   6 C        4   6 C                                       1.5338427
     5   6 C        6   6 C                                       1.5269751
     5   6 C        7   6 C                                       1.5335965
     5   6 C        8   8 O                                       1.4283034
     3   8 O        9   5 B                                       1.3677292
     8   8 O        9   5 B                                       1.3638062
     9   5 B       10   6 C                                       1.5638983 (max)
    10   6 C       11   6 C                                       1.4182135
    11   6 C       12   6 C                                       1.3760137
    12   6 C       13   1 H                                       1.0835271
    12   6 C       14   6 C                                       1.4926312
    14   6 C       15   1 H                                       1.0871604
    16   6 C       17   5 B                                       1.5584998
    17   5 B       18   8 O                                       1.3685695
    18   8 O       19   6 C                                       1.4271631
    19   6 C       20   6 C                                       1.5269701
    19   6 C       21   6 C                                       1.5341722
    22   6 C       23   6 C                                       1.5340203
    22   6 C       24   6 C                                       1.5269929
    17   5 B       25   8 O                                       1.3669658
    22   6 C       25   8 O                                       1.4264683
    16   6 C       26   6 C                                       1.3340762
    10   6 C       27   6 C                                       1.5151304
    26   6 C       27   6 C                                       1.4717733
    27   6 C       28   1 H                                       1.0857073
    27   6 C       29   6 C                                       1.4914347
    29   6 C       30   6 C                                       1.4072101
    14   6 C       31   6 C                                       1.4894641
    30   6 C       31   6 C                                       1.3785677
    31   6 C       32   1 H                                       1.0835366
     1   6 C       33   1 H                                       1.0872595
     1   6 C       34   1 H                                       1.0865007
     1   6 C       35   1 H                                       1.0851914
     4   6 C       36   1 H                                       1.0876529
     4   6 C       37   1 H                                       1.0870239
     4   6 C       38   1 H                                       1.0858087
     6   6 C       39   1 H                                       1.0865428
     6   6 C       40   1 H                                       1.0850722
     6   6 C       41   1 H                                       1.0870967
     7   6 C       42   1 H                                       1.0857269
     7   6 C       43   1 H                                       1.0875225
     7   6 C       44   1 H                                       1.0871089
    11   6 C       45   1 H                                       1.0822011
    20   6 C       46   1 H                                       1.0872188
    20   6 C       47   1 H                                       1.0867161
    20   6 C       48   1 H                                       1.0851240
    21   6 C       49   1 H                                       1.0876505
    21   6 C       50   1 H                                       1.0871280
    21   6 C       51   1 H                                       1.0858797
    23   6 C       52   1 H                                       1.0858440
    23   6 C       53   1 H                                       1.0875642
    23   6 C       54   1 H                                       1.0870937
    24   6 C       55   1 H                                       1.0865814
    24   6 C       56   1 H                                       1.0851236
    24   6 C       57   1 H                                       1.0871448
    26   6 C       58   1 H                                       1.0817994 (min)
    29   6 C       59   1 H                                       1.0820342
    30   6 C       60   1 H                                       1.0828018

 * 5 distinct bonds (by element types)

   Z      Z             #   av. dist./Å        max./Å        min./Å
   1 H    6 C          32     1.0858232     1.0876529     1.0817994
   5 B    6 C           2     1.5611991     1.5638983     1.5584998
   6 C    6 C          18     1.4787894     1.5341722     1.3340762
   5 B    8 O           4     1.3667677     1.3685695     1.3638062
   6 C    8 O           4     1.4274367     1.4283034     1.4264683


optimized geometry written to: xtbopt.xyz


           -------------------------------------------------
          | TOTAL ENERGY              -82.299825773371 Eh   |
          | GRADIENT NORM               0.000700761171 Eh/α |
          | HOMO-LUMO GAP               2.792008892171 eV   |
           -------------------------------------------------

------------------------------------------------------------------------
 * finished run on 2022/07/09 at 18:33:27.846     
------------------------------------------------------------------------
 total:
 * wall-time:     0 d,  0 h,  0 min,  1.180 sec
 *  cpu-time:     0 d,  0 h,  0 min,  1.178 sec
 * ratio c/w:     0.998 speedup
 SCF:
 * wall-time:     0 d,  0 h,  0 min,  0.068 sec
 *  cpu-time:     0 d,  0 h,  0 min,  0.068 sec
 * ratio c/w:     0.999 speedup
 ANC optimizer:
 * wall-time:     0 d,  0 h,  0 min,  1.100 sec
 *  cpu-time:     0 d,  0 h,  0 min,  1.098 sec
 * ratio c/w:     0.998 speedup

