      -----------------------------------------------------------      
     |                   =====================                   |     
     |                           x T B                           |     
     |                   =====================                   |     
     |                         S. Grimme                         |     
     |          Mulliken Center for Theoretical Chemistry        |     
     |                    University of Bonn                     |     
      -----------------------------------------------------------      

   * xtb version 6.5.0 (homebrew) compiled by 'nhattrup@GPGGRP-SHANNON.CHEME.CMU.EDU' on 

   xtb is free software: you can redistribute it and/or modify it under
   the terms of the GNU Lesser General Public License as published by
   the Free Software Foundation, either version 3 of the License, or
   (at your option) any later version.
   
   xtb is distributed in the hope that it will be useful,
   but WITHOUT ANY WARRANTY; without even the implied warranty of
   MERCHANTABILITY or FITNESS FOR A PARTICULAR PURPOSE.  See the
   GNU Lesser General Public License for more details.
   
   Cite this work as:
   * C. Bannwarth, E. Caldeweyher, S. Ehlert, A. Hansen, P. Pracht,
     J. Seibert, S. Spicher, S. Grimme, WIREs Comput. Mol. Sci., 2020, 11,
     e01493. DOI: 10.1002/wcms.1493
   
   for GFN2-xTB:
   * C. Bannwarth, S. Ehlert and S. Grimme., J. Chem. Theory Comput., 2019,
     15, 1652-1671. DOI: 10.1021/acs.jctc.8b01176
   for GFN1-xTB:
   * S. Grimme, C. Bannwarth, P. Shushkov, J. Chem. Theory Comput., 2017,
     13, 1989-2009. DOI: 10.1021/acs.jctc.7b00118
   for GFN0-xTB:
   * P. Pracht, E. Caldeweyher, S. Ehlert, S. Grimme, ChemRxiv, 2019, preprint.
     DOI: 10.26434/chemrxiv.8326202.v1
   for GFN-FF:
   * S. Spicher and S. Grimme, Angew. Chem. Int. Ed., 2020, 59, 15665-15673.
     DOI: 10.1002/anie.202004239
   
   for ALPB and GBSA implicit solvation:
   * S. Ehlert, M. Stahn, S. Spicher, S. Grimme, J. Chem. Theory Comput.,
     2021, 17, 4250-4261. DOI: 10.1021/acs.jctc.1c00471
   
   for DFT-D4:
   * E. Caldeweyher, C. Bannwarth and S. Grimme, J. Chem. Phys., 2017,
     147, 034112. DOI: 10.1063/1.4993215
   * E. Caldeweyher, S. Ehlert, A. Hansen, H. Neugebauer, S. Spicher,
     C. Bannwarth and S. Grimme, J. Chem. Phys., 2019, 150, 154122.
     DOI: 10.1063/1.5090222
   * E. Caldeweyher, J.-M. Mewes, S. Ehlert and S. Grimme, Phys. Chem. Chem. Phys.
     2020, 22, 8499-8512. DOI: 10.1039/D0CP00502A
   
   for sTDA-xTB:
   * S. Grimme and C. Bannwarth, J. Chem. Phys., 2016, 145, 054103.
     DOI: 10.1063/1.4959605
   
   in the mass-spec context:
   * V. Asgeirsson, C. Bauer and S. Grimme, Chem. Sci., 2017, 8, 4879.
     DOI: 10.1039/c7sc00601b
   * J. Koopman and S. Grimme, ACS Omega 2019, 4, 12, 15120-15133.
     DOI: 10.1021/acsomega.9b02011
   
   for metadynamics refer to:
   * S. Grimme, J. Chem. Theory Comput., 2019, 155, 2847-2862
     DOI: 10.1021/acs.jctc.9b00143
   
   for SPH calculations refer to:
   * S. Spicher and S. Grimme, J. Chem. Theory Comput., 2021, 17, 1701-1714
     DOI: 10.1021/acs.jctc.0c01306
   
   with help from (in alphabetical order)
   P. Atkinson, C. Bannwarth, F. Bohle, G. Brandenburg, E. Caldeweyher
   M. Checinski, S. Dohm, S. Ehlert, S. Ehrlich, I. Gerasimov, C. Hölzer
   A. Katbashev, J. Koopman, C. Lavigne, S. Lehtola, F. März, M. Müller,
   F. Musil, H. Neugebauer, J. Pisarek, C. Plett, P. Pracht, F. Pultar,
   J. Seibert, P. Shushkov, S. Spicher, M. Stahn, M. Steiner, T. Strunk,
   J. Stückrath, T. Rose, and J. Unsleber
   
 * started run on 2022/07/09 at 18:33:18.223     

           -------------------------------------------------
          |                Calculation Setup                |
           -------------------------------------------------

          program call               : /opt/homebrew/bin/xtb bvl_bpin2_scan_3-5_xtb.xyz --chrg 0 --uhf 0 --opt --input xcontrol_bvl_bpin2_scan_3-5_xtb
          coordinate file            : bvl_bpin2_scan_3-5_xtb.xyz
          omp threads                :                     1

   ID    Z sym.   atoms
    1    6 C      1, 2, 4-7, 10-12, 14, 16, 19-24, 26, 27, 29-31
    2    8 O      3, 8, 18, 25
    3    5 B      9, 17
    4    1 H      13, 15, 28, 32-60
constraining bond 12 31 to    1.8333000 Å, actual value:    1.7192106 Å
constraining bond 10 29 to    1.9444000 Å, actual value:    2.0577295 Å

           -------------------------------------------------
          |                 G F N 2 - x T B                 |
           -------------------------------------------------

        Reference                      10.1021/acs.jctc.8b01176
      * Hamiltonian:
        H0-scaling (s, p, d)           1.850000    2.230000    2.230000
        zeta-weighting                 0.500000
      * Dispersion:
        s8                             2.700000
        a1                             0.520000
        a2                             5.000000
        s9                             5.000000
      * Repulsion:
        kExp                           1.500000    1.000000
        rExp                           1.000000
      * Coulomb:
        alpha                          2.000000
        third order                    shell-resolved
        anisotropic                    true
        a3                             3.000000
        a5                             4.000000
        cn-shift                       1.200000
        cn-exp                         4.000000
        max-rad                        5.000000


          ...................................................
          :                      SETUP                      :
          :.................................................:
          :  # basis functions                 144          :
          :  # atomic orbitals                 144          :
          :  # shells                           88          :
          :  # electrons                       150          :
          :  max. iterations                   250          :
          :  Hamiltonian                  GFN2-xTB          :
          :  restarted?                      false          :
          :  GBSA solvation                  false          :
          :  PC potential                    false          :
          :  electronic temp.          300.0000000     K    :
          :  accuracy                    1.0000000          :
          :  -> integral cutoff          0.2500000E+02      :
          :  -> integral neglect         0.1000000E-07      :
          :  -> SCF convergence          0.1000000E-05 Eh   :
          :  -> wf. convergence          0.1000000E-03 e    :
          :  Broyden damping             0.4000000          :
          ...................................................

 iter      E             dE          RMSdq      gap      omega  full diag
   1    -82.9564610 -0.829565E+02  0.467E+00    3.39       0.0  T
   2    -83.3387694 -0.382308E+00  0.287E+00    2.92       1.0  T
   3    -83.3519096 -0.131402E-01  0.136E+00    3.25       1.0  T
   4    -83.3743172 -0.224077E-01  0.400E-01    3.10       1.0  T
   5    -83.3850302 -0.107130E-01  0.146E-01    3.16       1.0  T
   6    -83.3848752  0.154976E-03  0.104E-01    3.17       1.0  T
   7    -83.3852248 -0.349563E-03  0.319E-02    3.16       1.0  T
   8    -83.3852672 -0.423882E-04  0.876E-03    3.16       1.5  T
   9    -83.3852685 -0.131215E-05  0.435E-03    3.16       3.0  T
  10    -83.3852687 -0.240515E-06  0.225E-03    3.16       5.7  T
  11    -83.3852689 -0.127026E-06  0.565E-04    3.16      22.8  T
  12    -83.3852689 -0.113380E-07  0.271E-04    3.16      47.7  T

   *** convergence criteria satisfied after 12 iterations ***

         #    Occupation            Energy/Eh            Energy/eV
      -------------------------------------------------------------
         1        2.0000           -0.6877185             -18.7138
       ...           ...                  ...                  ...
        69        2.0000           -0.4072186             -11.0810
        70        2.0000           -0.3974689             -10.8157
        71        2.0000           -0.3970850             -10.8052
        72        2.0000           -0.3946760             -10.7397
        73        2.0000           -0.3837917             -10.4435
        74        2.0000           -0.3565452              -9.7021
        75        2.0000           -0.3408581              -9.2752 (HOMO)
        76                         -0.2246941              -6.1142 (LUMO)
        77                         -0.2091311              -5.6907
        78                         -0.1834860              -4.9929
        79                         -0.1053347              -2.8663
        80                         -0.0939083              -2.5554
       ...                                ...                  ...
       144                          0.6931594              18.8618
      -------------------------------------------------------------
                  HL-Gap            0.1161640 Eh            3.1610 eV
             Fermi-level           -0.2827761 Eh           -7.6947 eV

 SCC (total)                   0 d,  0 h,  0 min,  0.068 sec
 SCC setup                      ...        0 min,  0.000 sec (  0.359%)
 Dispersion                     ...        0 min,  0.000 sec (  0.608%)
 classical contributions        ...        0 min,  0.000 sec (  0.256%)
 integral evaluation            ...        0 min,  0.006 sec (  8.908%)
 iterations                     ...        0 min,  0.033 sec ( 48.527%)
 molecular gradient             ...        0 min,  0.028 sec ( 40.716%)
 printout                       ...        0 min,  0.000 sec (  0.615%)

         :::::::::::::::::::::::::::::::::::::::::::::::::::::
         ::                     SUMMARY                     ::
         :::::::::::::::::::::::::::::::::::::::::::::::::::::
         :: total energy             -82.121633936307 Eh    ::
         :: gradient norm              1.680220102365 Eh/a0 ::
         :: HOMO-LUMO gap              3.160982706581 eV    ::
         ::.................................................::
         :: SCC energy               -83.385268870412 Eh    ::
         :: -> isotropic ES            0.147572857519 Eh    ::
         :: -> anisotropic ES          0.011911929531 Eh    ::
         :: -> anisotropic XC          0.026499411287 Eh    ::
         :: -> dispersion             -0.061631036826 Eh    ::
         :: repulsion energy           1.078266527734 Eh    ::
         :: add. restraining           0.184695352953 Eh    ::
         :: total charge               0.000000000000 e     ::
         :::::::::::::::::::::::::::::::::::::::::::::::::::::

      ----------------------------------------------------------- 
     |                   =====================                   |
     |                        A N C O P T                        |
     |                   =====================                   |
     |               Approximate Normal Coordinate               |
     |                Rational Function Optimizer                |
      ----------------------------------------------------------- 

          ...................................................
          :                      SETUP                      :
          :.................................................:
          :   optimization level            normal          :
          :   max. optcycles                   200          :
          :   ANC micro-cycles                  20          :
          :   degrees of freedom               174          :
          :.................................................:
          :   RF solver                   davidson          :
          :   write xtbopt.log                true          :
          :   linear?                        false          :
          :   energy convergence         0.5000000E-05 Eh   :
          :   grad. convergence          0.1000000E-02 Eh/α :
          :   maximium RF displ.         1.0000000          :
          :   Hlow (freq-cutoff)         0.1000000E-01      :
          :   Hmax (freq-cutoff)         5.0000000          :
          :   S6 in model hess.         20.0000000          :
          ...................................................

generating ANC from model Hessian ...
Using Lindh-Hessian (1995)
 Shifting diagonal of input Hessian by   0.22208902235763078     
 Lowest  eigenvalues of input Hessian
    0.010000    0.136492    0.000000    0.000000    0.000000    0.000000
    0.000000    0.000000    0.222198    0.222230    0.222377    0.223737
    0.223965    0.224843    0.225366    0.225433    0.226724    0.227262
 Highest eigenvalues
    1.941186    2.076190    2.134101    2.272005    8.909508    9.168241


........................................................................
.............................. CYCLE    1 ..............................
........................................................................
   1    -83.3852689 -0.833853E+02  0.147E-04    3.16       0.0  T
   2    -83.3852689 -0.128401E-08  0.894E-05    3.16     144.5  T
   3    -83.3852689 -0.494595E-09  0.322E-05    3.16     401.2  T
     SCC iter.                  ...        0 min,  0.008 sec
     gradient                   ...        0 min,  0.029 sec
 * total energy  :   -82.1216339 Eh     change       -0.9345484E-09 Eh
   gradient norm :     1.6802207 Eh/α   predicted     0.0000000E+00 (-100.00%)
   displ. norm   :     0.3107166 α      lambda       -0.5163950E+00
   maximum displ.:     0.2371242 α      in ANC's #174, #173, #128, ...

........................................................................
.............................. CYCLE    2 ..............................
........................................................................
   1    -83.3688024 -0.833688E+02  0.402E-01    3.09       0.0  T
   2    -83.3693497 -0.547216E-03  0.301E-01    3.06       1.0  T
   3    -83.3691906  0.159040E-03  0.159E-01    3.08       1.0  T
   4    -83.3703210 -0.113042E-02  0.499E-02    3.06       1.0  T
   5    -83.3704497 -0.128669E-03  0.755E-03    3.06       1.7  T
   6    -83.3704506 -0.926356E-06  0.408E-03    3.06       3.2  T
   7    -83.3704508 -0.165505E-06  0.129E-03    3.06      10.0  T
   8    -83.3704508 -0.446557E-07  0.457E-04    3.06      28.2  T
   9    -83.3704509 -0.441901E-08  0.203E-04    3.06      63.5  T
     SCC iter.                  ...        0 min,  0.025 sec
     gradient                   ...        0 min,  0.028 sec
 * total energy  :   -82.2558830 Eh     change       -0.1342491E+00 Eh
   gradient norm :     0.8117230 Eh/α   predicted    -0.2831938E+00 ( 110.95%)
   displ. norm   :     0.1049311 α      lambda       -0.8091912E-01
   maximum displ.:     0.0771140 α      in ANC's #174, #173, #170, ...

........................................................................
.............................. CYCLE    3 ..............................
........................................................................
   1    -83.3748180 -0.833748E+02  0.129E-01    3.08       0.0  T
   2    -83.3749253 -0.107323E-03  0.109E-01    3.08       1.0  T
   3    -83.3751219 -0.196666E-03  0.565E-02    3.08       1.0  T
   4    -83.3751392 -0.172808E-04  0.205E-02    3.08       1.0  T
   5    -83.3751607 -0.214920E-04  0.329E-03    3.08       3.9  T
   6    -83.3751611 -0.390800E-06  0.154E-03    3.08       8.4  T
   7    -83.3751611 -0.208226E-07  0.494E-04    3.08      26.1  T
   8    -83.3751611 -0.496281E-08  0.200E-04    3.08      64.4  T
     SCC iter.                  ...        0 min,  0.022 sec
     gradient                   ...        0 min,  0.028 sec
 * total energy  :   -82.2976511 Eh     change       -0.4176809E-01 Eh
   gradient norm :     0.0356178 Eh/α   predicted    -0.4090549E-01 (  -2.07%)
   displ. norm   :     0.0416397 α      lambda       -0.1016303E-02
   maximum displ.:     0.0134506 α      in ANC's #1, #37, #128, ...

........................................................................
.............................. CYCLE    4 ..............................
........................................................................
   1    -83.3753438 -0.833753E+02  0.296E-02    3.08       0.0  T
   2    -83.3753493 -0.552046E-05  0.187E-02    3.08       1.0  T
   3    -83.3753488  0.562754E-06  0.124E-02    3.08       1.0  T
   4    -83.3753545 -0.570983E-05  0.386E-03    3.08       3.3  T
   5    -83.3753552 -0.728283E-06  0.856E-04    3.08      15.1  T
   6    -83.3753552 -0.323947E-07  0.315E-04    3.08      41.0  T
     SCC iter.                  ...        0 min,  0.016 sec
     gradient                   ...        0 min,  0.028 sec
 * total energy  :   -82.2984408 Eh     change       -0.7897503E-03 Eh
   gradient norm :     0.0195087 Eh/α   predicted    -0.5091093E-03 ( -35.54%)
   displ. norm   :     0.2879534 α      lambda       -0.2073625E-02
   maximum displ.:     0.2632785 α      in ANC's #1, #37, #28, ...

........................................................................
.............................. CYCLE    5 ..............................
........................................................................
   1    -83.3690696 -0.833691E+02  0.182E-01    3.08       0.0  T
   2    -83.3691323 -0.626864E-04  0.106E-01    3.08       1.0  T
   3    -83.3690230  0.109353E-03  0.666E-02    3.08       1.0  T
   4    -83.3691877 -0.164732E-03  0.130E-02    3.08       1.0  T
   5    -83.3691971 -0.942406E-05  0.232E-03    3.08       5.6  T
   6    -83.3691973 -0.128082E-06  0.118E-03    3.08      11.0  T
   7    -83.3691973 -0.163583E-07  0.364E-04    3.08      35.5  T
   8    -83.3691973 -0.302137E-08  0.101E-04    3.08     127.9  T
     SCC iter.                  ...        0 min,  0.022 sec
     gradient                   ...        0 min,  0.028 sec
 * total energy  :   -82.2945545 Eh     change        0.3886386E-02 Eh
   gradient norm :     0.0808729 Eh/α   predicted    -0.1122793E-02 (-128.89%)
   displ. norm   :     0.2593868 α      lambda       -0.9755756E-02
   maximum displ.:     0.2581464 α      in ANC's #1, #37, #28, ...

........................................................................
.............................. CYCLE    6 ..............................
........................................................................
   1    -83.3755361 -0.833755E+02  0.161E-01    3.07       0.0  T
   2    -83.3755775 -0.414097E-04  0.927E-02    3.07       1.0  T
   3    -83.3755281  0.493777E-04  0.553E-02    3.07       1.0  T
   4    -83.3756111 -0.829884E-04  0.494E-03    3.07       2.6  T
   5    -83.3756124 -0.129989E-05  0.163E-03    3.07       7.9  T
   6    -83.3756124 -0.847862E-09  0.101E-03    3.07      12.8  T
   7    -83.3756125 -0.359314E-07  0.184E-04    3.07      70.2  T
   8    -83.3756125 -0.104245E-08  0.828E-05    3.07     155.9  T
     SCC iter.                  ...        0 min,  0.022 sec
     gradient                   ...        0 min,  0.028 sec
 * total energy  :   -82.2989609 Eh     change       -0.4406449E-02 Eh
   gradient norm :     0.0255923 Eh/α   predicted    -0.5206201E-02 (  18.15%)
   displ. norm   :     0.0554359 α      lambda       -0.6540934E-03
   maximum displ.:     0.0164287 α      in ANC's #128, #37, #109, ...

........................................................................
.............................. CYCLE    7 ..............................
........................................................................
   1    -83.3761143 -0.833761E+02  0.443E-02    3.08       0.0  T
   2    -83.3761267 -0.124378E-04  0.275E-02    3.08       1.0  T
   3    -83.3761243  0.238536E-05  0.184E-02    3.08       1.0  T
   4    -83.3761373 -0.130028E-04  0.570E-03    3.08       2.3  T
   5    -83.3761389 -0.160484E-05  0.127E-03    3.08      10.2  T
   6    -83.3761390 -0.709367E-07  0.466E-04    3.08      27.7  T
   7    -83.3761390 -0.262597E-08  0.196E-04    3.08      65.8  T
     SCC iter.                  ...        0 min,  0.019 sec
     gradient                   ...        0 min,  0.028 sec
 * total energy  :   -82.2991469 Eh     change       -0.1860059E-03 Eh
   gradient norm :     0.0059860 Eh/α   predicted    -0.3281000E-03 (  76.39%)
   displ. norm   :     0.0343593 α      lambda       -0.1778041E-03
   maximum displ.:     0.0151267 α      in ANC's #37, #28, #38, ...

........................................................................
.............................. CYCLE    8 ..............................
........................................................................
   1    -83.3762676 -0.833763E+02  0.188E-02    3.08       0.0  T
   2    -83.3762685 -0.929202E-06  0.113E-02    3.08       1.1  T
   3    -83.3762663  0.219686E-05  0.696E-03    3.08       1.9  T
   4    -83.3762693 -0.298123E-05  0.162E-03    3.08       8.0  T
   5    -83.3762695 -0.135639E-06  0.364E-04    3.08      35.5  T
   6    -83.3762695 -0.432640E-08  0.174E-04    3.08      74.3  T
     SCC iter.                  ...        0 min,  0.017 sec
     gradient                   ...        0 min,  0.028 sec
 * total energy  :   -82.2992746 Eh     change       -0.1276722E-03 Eh
   gradient norm :     0.0044936 Eh/α   predicted    -0.8898512E-04 ( -30.30%)
   displ. norm   :     0.0520786 α      lambda       -0.1598159E-03
   maximum displ.:     0.0242135 α      in ANC's #37, #28, #38, ...

........................................................................
.............................. CYCLE    9 ..............................
........................................................................
   1    -83.3766221 -0.833766E+02  0.245E-02    3.08       0.0  T
   2    -83.3766223 -0.231952E-06  0.145E-02    3.08       1.0  T
   3    -83.3766209  0.137376E-05  0.431E-03    3.08       3.0  T
   4    -83.3766225 -0.153086E-05  0.840E-04    3.08      15.4  T
   5    -83.3766225 -0.322022E-07  0.318E-04    3.08      40.6  T
   6    -83.3766225 -0.368374E-09  0.167E-04    3.08      77.3  T
     SCC iter.                  ...        0 min,  0.016 sec
     gradient                   ...        0 min,  0.028 sec
 * total energy  :   -82.2993928 Eh     change       -0.1182496E-03 Eh
   gradient norm :     0.0058632 Eh/α   predicted    -0.8006680E-04 ( -32.29%)
   displ. norm   :     0.0686763 α      lambda       -0.1563008E-03
   maximum displ.:     0.0337608 α      in ANC's #28, #37, #38, ...

........................................................................
.............................. CYCLE   10 ..............................
........................................................................
   1    -83.3771287 -0.833771E+02  0.318E-02    3.08       0.0  T
   2    -83.3771290 -0.296062E-06  0.189E-02    3.08       1.0  T
   3    -83.3771281  0.839508E-06  0.385E-03    3.08       3.4  T
   4    -83.3771291 -0.978309E-06  0.651E-04    3.08      19.8  T
   5    -83.3771291 -0.845338E-08  0.412E-04    3.08      31.3  T
     SCC iter.                  ...        0 min,  0.014 sec
     gradient                   ...        0 min,  0.028 sec
 * total energy  :   -82.2994978 Eh     change       -0.1049597E-03 Eh
   gradient norm :     0.0049719 Eh/α   predicted    -0.7845443E-04 ( -25.25%)
   displ. norm   :     0.0404647 α      lambda       -0.6841264E-04
   maximum displ.:     0.0217594 α      in ANC's #28, #37, #38, ...

........................................................................
.............................. CYCLE   11 ..............................
........................................................................
   1    -83.3775201 -0.833775E+02  0.193E-02    3.08       0.0  T
   2    -83.3775206 -0.452375E-06  0.115E-02    3.08       1.1  T
   3    -83.3775190  0.155555E-05  0.497E-03    3.08       2.6  T
   4    -83.3775208 -0.183817E-05  0.808E-04    3.08      16.0  T
   5    -83.3775209 -0.306283E-07  0.350E-04    3.08      36.9  T
   6    -83.3775209 -0.406895E-08  0.160E-04    3.08      80.6  T
     SCC iter.                  ...        0 min,  0.017 sec
     gradient                   ...        0 min,  0.028 sec
 * total energy  :   -82.2995440 Eh     change       -0.4619286E-04 Eh
   gradient norm :     0.0030729 Eh/α   predicted    -0.3426577E-04 ( -25.82%)
   displ. norm   :     0.0224124 α      lambda       -0.3305242E-04
   maximum displ.:     0.0128883 α      in ANC's #28, #8, #38, ...

........................................................................
.............................. CYCLE   12 ..............................
........................................................................
   1    -83.3778254 -0.833778E+02  0.108E-02    3.08       0.0  T
   2    -83.3778256 -0.238428E-06  0.644E-03    3.08       2.0  T
   3    -83.3778251  0.540500E-06  0.317E-03    3.08       4.1  T
   4    -83.3778258 -0.677798E-06  0.608E-04    3.08      21.2  T
   5    -83.3778258 -0.193358E-07  0.227E-04    3.08      56.8  T
     SCC iter.                  ...        0 min,  0.014 sec
     gradient                   ...        0 min,  0.028 sec
 * total energy  :   -82.2995677 Eh     change       -0.2369813E-04 Eh
   gradient norm :     0.0025356 Eh/α   predicted    -0.1655929E-04 ( -30.12%)
   displ. norm   :     0.0234512 α      lambda       -0.2885836E-04
   maximum displ.:     0.0132006 α      in ANC's #28, #8, #6, ...

........................................................................
.............................. CYCLE   13 ..............................
........................................................................
   1    -83.3780847 -0.833781E+02  0.950E-03    3.09       0.0  T
   2    -83.3780848 -0.124901E-06  0.569E-03    3.09       2.3  T
   3    -83.3780845  0.323341E-06  0.233E-03    3.09       5.5  T
   4    -83.3780849 -0.386132E-06  0.351E-04    3.09      36.8  T
   5    -83.3780849 -0.565397E-08  0.161E-04    3.09      80.2  T
     SCC iter.                  ...        0 min,  0.014 sec
     gradient                   ...        0 min,  0.028 sec
 * total energy  :   -82.2995892 Eh     change       -0.2151839E-04 Eh
   gradient norm :     0.0029533 Eh/α   predicted    -0.1444191E-04 ( -32.89%)
   displ. norm   :     0.0342605 α      lambda       -0.3524003E-04
   maximum displ.:     0.0191106 α      in ANC's #28, #8, #6, ...

........................................................................
.............................. CYCLE   14 ..............................
........................................................................
   1    -83.3782950 -0.833783E+02  0.118E-02    3.09       0.0  T
   2    -83.3782951 -0.953945E-07  0.708E-03    3.09       1.8  T
   3    -83.3782949  0.163304E-06  0.198E-03    3.09       6.5  T
   4    -83.3782951 -0.184305E-06  0.416E-04    3.09      31.1  T
   5    -83.3782951 -0.574535E-08  0.207E-04    3.09      62.3  T
     SCC iter.                  ...        0 min,  0.014 sec
     gradient                   ...        0 min,  0.028 sec
 * total energy  :   -82.2996147 Eh     change       -0.2547313E-04 Eh
   gradient norm :     0.0034763 Eh/α   predicted    -0.1767025E-04 ( -30.63%)
   displ. norm   :     0.0396484 α      lambda       -0.3455321E-04
   maximum displ.:     0.0221147 α      in ANC's #28, #8, #6, ...

........................................................................
.............................. CYCLE   15 ..............................
........................................................................
   1    -83.3783207 -0.833783E+02  0.121E-02    3.09       0.0  T
   2    -83.3783208 -0.117402E-06  0.732E-03    3.09       1.8  T
   3    -83.3783204  0.354757E-06  0.296E-03    3.09       4.4  T
   4    -83.3783209 -0.417535E-06  0.393E-04    3.09      32.9  T
   5    -83.3783209 -0.396597E-08  0.241E-04    3.09      53.6  T
     SCC iter.                  ...        0 min,  0.014 sec
     gradient                   ...        0 min,  0.028 sec
 * total energy  :   -82.2996386 Eh     change       -0.2396188E-04 Eh
   gradient norm :     0.0035389 Eh/α   predicted    -0.1730555E-04 ( -27.78%)
   displ. norm   :     0.0334338 α      lambda       -0.2610916E-04
   maximum displ.:     0.0187648 α      in ANC's #28, #8, #6, ...

........................................................................
.............................. CYCLE   16 ..............................
........................................................................
   1    -83.3781955 -0.833782E+02  0.110E-02    3.09       0.0  T
   2    -83.3781957 -0.136686E-06  0.659E-03    3.09       2.0  T
   3    -83.3781952  0.470074E-06  0.309E-03    3.09       4.2  T
   4    -83.3781958 -0.571086E-06  0.418E-04    3.09      30.9  T
   5    -83.3781958 -0.674324E-08  0.210E-04    3.09      61.6  T
     SCC iter.                  ...        0 min,  0.014 sec
     gradient                   ...        0 min,  0.028 sec
 * total energy  :   -82.2996563 Eh     change       -0.1765475E-04 Eh
   gradient norm :     0.0025182 Eh/α   predicted    -0.1307114E-04 ( -25.96%)
   displ. norm   :     0.0246585 α      lambda       -0.1815288E-04
   maximum displ.:     0.0132022 α      in ANC's #28, #8, #6, ...

........................................................................
.............................. CYCLE   17 ..............................
........................................................................
   1    -83.3780213 -0.833780E+02  0.910E-03    3.09       0.0  T
   2    -83.3780214 -0.866274E-07  0.542E-03    3.09       2.4  T
   3    -83.3780212  0.203256E-06  0.231E-03    3.09       5.6  T
   4    -83.3780214 -0.253910E-06  0.258E-04    3.09      50.1  T
   5    -83.3780214 -0.180073E-08  0.131E-04    3.09      98.9  T
     SCC iter.                  ...        0 min,  0.014 sec
     gradient                   ...        0 min,  0.029 sec
 * total energy  :   -82.2996690 Eh     change       -0.1266259E-04 Eh
   gradient norm :     0.0021215 Eh/α   predicted    -0.9087618E-05 ( -28.23%)
   displ. norm   :     0.0243515 α      lambda       -0.1530552E-04
   maximum displ.:     0.0124509 α      in ANC's #28, #8, #6, ...

........................................................................
.............................. CYCLE   18 ..............................
........................................................................
   1    -83.3778843 -0.833779E+02  0.949E-03    3.09       0.0  T
   2    -83.3778844 -0.304084E-07  0.565E-03    3.09       2.3  T
   3    -83.3778843  0.807850E-07  0.130E-03    3.09       9.9  T
   4    -83.3778844 -0.933904E-07  0.244E-04    3.09      52.9  T
   5    -83.3778844 -0.123745E-08  0.143E-04    3.09      90.2  T
     SCC iter.                  ...        0 min,  0.015 sec
     gradient                   ...        0 min,  0.029 sec
 * total energy  :   -82.2996802 Eh     change       -0.1125071E-04 Eh
   gradient norm :     0.0023375 Eh/α   predicted    -0.7677745E-05 ( -31.76%)
   displ. norm   :     0.0284416 α      lambda       -0.1672808E-04
   maximum displ.:     0.0129937 α      in ANC's #28, #29, #8, ...

........................................................................
.............................. CYCLE   19 ..............................
........................................................................
   1    -83.3777810 -0.833778E+02  0.105E-02    3.09       0.0  T
   2    -83.3777810 -0.299014E-07  0.622E-03    3.09       2.1  T
   3    -83.3777808  0.187912E-06  0.169E-03    3.09       7.6  T
   4    -83.3777810 -0.206536E-06  0.332E-04    3.09      38.9  T
   5    -83.3777810 -0.424950E-08  0.155E-04    3.09      83.1  T
     SCC iter.                  ...        0 min,  0.014 sec
     gradient                   ...        0 min,  0.028 sec
 * total energy  :   -82.2996923 Eh     change       -0.1211336E-04 Eh
   gradient norm :     0.0022634 Eh/α   predicted    -0.8382229E-05 ( -30.80%)
   displ. norm   :     0.0295170 α      lambda       -0.1493297E-04
   maximum displ.:     0.0128785 α      in ANC's #28, #29, #8, ...

........................................................................
.............................. CYCLE   20 ..............................
........................................................................
   1    -83.3777468 -0.833777E+02  0.979E-03    3.09       0.0  T
   2    -83.3777469 -0.525316E-07  0.585E-03    3.09       2.2  T
   3    -83.3777466  0.293331E-06  0.215E-03    3.09       6.0  T
   4    -83.3777469 -0.335593E-06  0.302E-04    3.09      42.8  T
   5    -83.3777469 -0.336298E-08  0.157E-04    3.09      82.0  T
     SCC iter.                  ...        0 min,  0.014 sec
     gradient                   ...        0 min,  0.028 sec
 * total energy  :   -82.2997030 Eh     change       -0.1072205E-04 Eh
   gradient norm :     0.0018822 Eh/α   predicted    -0.7474868E-05 ( -30.29%)
   displ. norm   :     0.0416690 α      lambda       -0.1230603E-04
   maximum displ.:     0.0180504 α      in ANC's #29, #28, #8, ...
 * RMSD in coord.:     0.0706624 α      energy gain  -0.1780691E+00 Eh

generating ANC from model Hessian ...
Using Lindh-Hessian (1995)
 Shifting diagonal of input Hessian by    9.8966094982912631E-003
 Lowest  eigenvalues of input Hessian
    0.000000    0.000000    0.000000    0.000000    0.000000    0.000000
    0.010000    0.010033    0.010108    0.010408    0.011041    0.011792
    0.012387    0.013194    0.013213    0.013808    0.014775    0.015113
 Highest eigenvalues
    1.727485    1.851752    1.893161    1.925213    8.724693    8.833463


........................................................................
.............................. CYCLE   21 ..............................
........................................................................
   1    -83.3777610 -0.833778E+02  0.128E-02    3.08       0.0  T
   2    -83.3777611 -0.132218E-06  0.763E-03    3.08       1.7  T
   3    -83.3777606  0.473700E-06  0.302E-03    3.08       4.3  T
   4    -83.3777612 -0.565046E-06  0.288E-04    3.08      44.9  T
   5    -83.3777612 -0.181373E-08  0.163E-04    3.08      79.2  T
     SCC iter.                  ...        0 min,  0.014 sec
     gradient                   ...        0 min,  0.028 sec
 * total energy  :   -82.2997136 Eh     change       -0.1055867E-04 Eh
   gradient norm :     0.0017058 Eh/α   predicted     0.0000000E+00 (-100.00%)
   displ. norm   :     0.0462010 α      lambda       -0.2805600E-05
   maximum displ.:     0.0185578 α      in ANC's #6, #1, #27, ...

........................................................................
.............................. CYCLE   22 ..............................
........................................................................
   1    -83.3779545 -0.833780E+02  0.145E-02    3.09       0.0  T
   2    -83.3779546 -0.595887E-07  0.853E-03    3.09       1.5  T
   3    -83.3779543  0.301736E-06  0.219E-03    3.09       5.9  T
   4    -83.3779546 -0.331692E-06  0.426E-04    3.09      30.3  T
   5    -83.3779546 -0.715373E-08  0.190E-04    3.09      67.8  T
     SCC iter.                  ...        0 min,  0.014 sec
     gradient                   ...        0 min,  0.028 sec
 * total energy  :   -82.2997349 Eh     change       -0.2128880E-04 Eh
   gradient norm :     0.0008471 Eh/α   predicted    -0.1201614E-04 ( -43.56%)
   displ. norm   :     0.0482054 α      lambda       -0.8800144E-05
   maximum displ.:     0.0256787 α      in ANC's #1, #6, #10, ...

........................................................................
.............................. CYCLE   23 ..............................
........................................................................
   1    -83.3780242 -0.833780E+02  0.104E-02    3.09       0.0  T
   2    -83.3780242 -0.312907E-07  0.620E-03    3.08       2.1  T
   3    -83.3780241  0.104506E-06  0.125E-03    3.09      10.3  T
   4    -83.3780242 -0.116893E-06  0.290E-04    3.09      44.5  T
   5    -83.3780242 -0.336628E-08  0.151E-04    3.09      85.2  T
     SCC iter.                  ...        0 min,  0.014 sec
     gradient                   ...        0 min,  0.028 sec
 * total energy  :   -82.2997444 Eh     change       -0.9500828E-05 Eh
   gradient norm :     0.0009134 Eh/α   predicted    -0.4424126E-05 ( -53.43%)
   displ. norm   :     0.0685932 α      lambda       -0.8065676E-05
   maximum displ.:     0.0400589 α      in ANC's #1, #6, #2, ...

........................................................................
.............................. CYCLE   24 ..............................
........................................................................
   1    -83.3779913 -0.833780E+02  0.113E-02    3.08       0.0  T
   2    -83.3779913 -0.224432E-07  0.675E-03    3.08       1.9  T
   3    -83.3779913  0.372659E-07  0.886E-04    3.08      14.6  T
   4    -83.3779913 -0.467956E-07  0.220E-04    3.08      58.7  T
     SCC iter.                  ...        0 min,  0.011 sec
     gradient                   ...        0 min,  0.028 sec
 * total energy  :   -82.2997531 Eh     change       -0.8707599E-05 Eh
   gradient norm :     0.0019045 Eh/α   predicted    -0.4041472E-05 ( -53.59%)
   displ. norm   :     0.0763089 α      lambda       -0.7459649E-05
   maximum displ.:     0.0475064 α      in ANC's #1, #6, #2, ...

........................................................................
.............................. CYCLE   25 ..............................
........................................................................
   1    -83.3779165 -0.833779E+02  0.117E-02    3.08       0.0  T
   2    -83.3779165 -0.154904E-07  0.704E-03    3.08       1.8  T
   3    -83.3779165  0.206965E-07  0.709E-04    3.08      18.2  T
   4    -83.3779165 -0.280049E-07  0.228E-04    3.08      56.7  T
     SCC iter.                  ...        0 min,  0.011 sec
     gradient                   ...        0 min,  0.028 sec
 * total energy  :   -82.2997610 Eh     change       -0.7945980E-05 Eh
   gradient norm :     0.0025728 Eh/α   predicted    -0.3742573E-05 ( -52.90%)
   displ. norm   :     0.0546307 α      lambda       -0.7152808E-05
   maximum displ.:     0.0350024 α      in ANC's #1, #6, #2, ...

........................................................................
.............................. CYCLE   26 ..............................
........................................................................
   1    -83.3778771 -0.833779E+02  0.801E-03    3.08       0.0  T
   2    -83.3778771 -0.119376E-07  0.483E-03    3.08       2.7  T
   3    -83.3778771  0.513786E-07  0.869E-04    3.08      14.8  T
   4    -83.3778771 -0.593399E-07  0.165E-04    3.08      78.1  T
     SCC iter.                  ...        0 min,  0.011 sec
     gradient                   ...        0 min,  0.027 sec
 * total energy  :   -82.2997671 Eh     change       -0.6006332E-05 Eh
   gradient norm :     0.0005563 Eh/α   predicted    -0.3603119E-05 ( -40.01%)
   displ. norm   :     0.1038940 α      lambda       -0.8202907E-05
   maximum displ.:     0.0676141 α      in ANC's #1, #2, #6, ...

........................................................................
.............................. CYCLE   27 ..............................
........................................................................
   1    -83.3778358 -0.833778E+02  0.133E-02    3.08       0.0  T
   2    -83.3778359 -0.351140E-07  0.795E-03    3.08       1.6  T
   3    -83.3778358  0.109121E-06  0.129E-03    3.08      10.0  T
   4    -83.3778359 -0.130070E-06  0.293E-04    3.08      44.1  T
   5    -83.3778359 -0.533220E-09  0.166E-04    3.08      77.7  T
     SCC iter.                  ...        0 min,  0.013 sec
     gradient                   ...        0 min,  0.027 sec
 * total energy  :   -82.2997764 Eh     change       -0.9363994E-05 Eh
   gradient norm :     0.0013040 Eh/α   predicted    -0.4122408E-05 ( -55.98%)
   displ. norm   :     0.0831965 α      lambda       -0.5802918E-05
   maximum displ.:     0.0561075 α      in ANC's #1, #2, #3, ...

........................................................................
.............................. CYCLE   28 ..............................
........................................................................
   1    -83.3778484 -0.833778E+02  0.973E-03    3.08       0.0  T
   2    -83.3778484 -0.199117E-07  0.580E-03    3.08       2.2  T
   3    -83.3778483  0.914119E-07  0.122E-03    3.08      10.6  T
   4    -83.3778484 -0.104974E-06  0.247E-04    3.08      52.2  T
   5    -83.3778484 -0.857597E-09  0.157E-04    3.08      82.4  T
     SCC iter.                  ...        0 min,  0.013 sec
     gradient                   ...        0 min,  0.026 sec
 * total energy  :   -82.2997839 Eh     change       -0.7459009E-05 Eh
   gradient norm :     0.0009476 Eh/α   predicted    -0.2912421E-05 ( -60.95%)
   displ. norm   :     0.0883648 α      lambda       -0.6546322E-05
   maximum displ.:     0.0600493 α      in ANC's #1, #2, #3, ...

........................................................................
.............................. CYCLE   29 ..............................
........................................................................
   1    -83.3779122 -0.833779E+02  0.994E-03    3.08       0.0  T
   2    -83.3779123 -0.232802E-07  0.591E-03    3.08       2.2  T
   3    -83.3779122  0.900781E-07  0.120E-03    3.08      10.8  T
   4    -83.3779123 -0.106075E-06  0.186E-04    3.08      69.5  T
   5    -83.3779123 -0.155069E-09  0.102E-04    3.08     126.7  T
     SCC iter.                  ...        0 min,  0.013 sec
     gradient                   ...        0 min,  0.026 sec
 * total energy  :   -82.2997921 Eh     change       -0.8242131E-05 Eh
   gradient norm :     0.0012069 Eh/α   predicted    -0.3285278E-05 ( -60.14%)
   displ. norm   :     0.1026202 α      lambda       -0.7108163E-05
   maximum displ.:     0.0704637 α      in ANC's #1, #2, #3, ...

........................................................................
.............................. CYCLE   30 ..............................
........................................................................
   1    -83.3779733 -0.833780E+02  0.115E-02    3.08       0.0  T
   2    -83.3779733 -0.333788E-07  0.687E-03    3.08       1.9  T
   3    -83.3779732  0.154102E-06  0.148E-03    3.08       8.7  T
   4    -83.3779733 -0.175009E-06  0.261E-04    3.08      49.5  T
   5    -83.3779733 -0.128091E-08  0.169E-04    3.08      76.6  T
     SCC iter.                  ...        0 min,  0.013 sec
     gradient                   ...        0 min,  0.026 sec
 * total energy  :   -82.2998002 Eh     change       -0.8067419E-05 Eh
   gradient norm :     0.0024175 Eh/α   predicted    -0.3571273E-05 ( -55.73%)
   displ. norm   :     0.0615598 α      lambda       -0.5864286E-05
   maximum displ.:     0.0432464 α      in ANC's #1, #2, #3, ...

........................................................................
.............................. CYCLE   31 ..............................
........................................................................
   1    -83.3779968 -0.833780E+02  0.618E-03    3.08       0.0  T
   2    -83.3779968 -0.117826E-07  0.370E-03    3.08       3.5  T
   3    -83.3779967  0.490692E-07  0.875E-04    3.08      14.8  T
   4    -83.3779968 -0.549064E-07  0.167E-04    3.08      77.4  T
     SCC iter.                  ...        0 min,  0.010 sec
     gradient                   ...        0 min,  0.026 sec
 * total energy  :   -82.2998053 Eh     change       -0.5094756E-05 Eh
   gradient norm :     0.0003760 Eh/α   predicted    -0.2943536E-05 ( -42.22%)
   displ. norm   :     0.0943560 α      lambda       -0.5898936E-05
   maximum displ.:     0.0667819 α      in ANC's #1, #2, #3, ...

........................................................................
.............................. CYCLE   32 ..............................
........................................................................
   1    -83.3780446 -0.833780E+02  0.859E-03    3.08       0.0  T
   2    -83.3780446 -0.173595E-07  0.513E-03    3.08       2.5  T
   3    -83.3780445  0.377667E-07  0.802E-04    3.08      16.1  T
   4    -83.3780446 -0.420382E-07  0.248E-04    3.08      52.2  T
     SCC iter.                  ...        0 min,  0.010 sec
     gradient                   ...        0 min,  0.026 sec
 * total energy  :   -82.2998131 Eh     change       -0.7813201E-05 Eh
   gradient norm :     0.0015260 Eh/α   predicted    -0.2962656E-05 ( -62.08%)
   displ. norm   :     0.1029226 α      lambda       -0.6744258E-05
   maximum displ.:     0.0723418 α      in ANC's #1, #2, #3, ...

........................................................................
.............................. CYCLE   33 ..............................
........................................................................
   1    -83.3780552 -0.833781E+02  0.936E-03    3.08       0.0  T
   2    -83.3780552 -0.161705E-07  0.560E-03    3.08       2.3  T
   3    -83.3780552  0.908871E-08  0.478E-04    3.08      27.0  T
   4    -83.3780552 -0.114182E-07  0.249E-04    3.08      51.9  T
     SCC iter.                  ...        0 min,  0.010 sec
     gradient                   ...        0 min,  0.026 sec
 * total energy  :   -82.2998224 Eh     change       -0.9333811E-05 Eh
   gradient norm :     0.0014324 Eh/α   predicted    -0.3391532E-05 ( -63.66%)
   displ. norm   :     0.1383732 α      lambda       -0.9029011E-05
   maximum displ.:     0.0960072 α      in ANC's #1, #2, #3, ...

........................................................................
.............................. CYCLE   34 ..............................
........................................................................
   1    -83.3780130 -0.833780E+02  0.131E-02    3.08       0.0  T
   2    -83.3780130 -0.202587E-07  0.787E-03    3.08       1.6  T
   3    -83.3780130  0.155310E-07  0.609E-04    3.08      21.2  T
   4    -83.3780130 -0.226905E-07  0.278E-04    3.08      46.5  T
     SCC iter.                  ...        0 min,  0.010 sec
     gradient                   ...        0 min,  0.026 sec
 * total energy  :   -82.2998343 Eh     change       -0.1190288E-04 Eh
   gradient norm :     0.0005585 Eh/α   predicted    -0.4553551E-05 ( -61.74%)
   displ. norm   :     0.1667463 α      lambda       -0.9035272E-05
   maximum displ.:     0.1156634 α      in ANC's #1, #2, #3, ...

........................................................................
.............................. CYCLE   35 ..............................
........................................................................
   1    -83.3779340 -0.833779E+02  0.153E-02    3.08       0.0  T
   2    -83.3779341 -0.243611E-07  0.919E-03    3.08       1.4  T
   3    -83.3779340  0.273956E-07  0.780E-04    3.08      16.5  T
   4    -83.3779341 -0.391684E-07  0.297E-04    3.08      43.5  T
     SCC iter.                  ...        0 min,  0.010 sec
     gradient                   ...        0 min,  0.026 sec
 * total energy  :   -82.2998456 Eh     change       -0.1122904E-04 Eh
   gradient norm :     0.0004850 Eh/α   predicted    -0.4573849E-05 ( -59.27%)
   displ. norm   :     0.1417414 α      lambda       -0.5857801E-05
   maximum displ.:     0.0992794 α      in ANC's #1, #2, #3, ...

........................................................................
.............................. CYCLE   36 ..............................
........................................................................
   1    -83.3779188 -0.833779E+02  0.127E-02    3.08       0.0  T
   2    -83.3779188 -0.147511E-07  0.762E-03    3.08       1.7  T
   3    -83.3779188  0.738004E-08  0.557E-04    3.08      23.2  T
   4    -83.3779188 -0.148401E-07  0.248E-04    3.08      52.1  T
     SCC iter.                  ...        0 min,  0.010 sec
     gradient                   ...        0 min,  0.026 sec
 * total energy  :   -82.2998528 Eh     change       -0.7285145E-05 Eh
   gradient norm :     0.0004000 Eh/α   predicted    -0.2959081E-05 ( -59.38%)
   displ. norm   :     0.1017029 α      lambda       -0.3622429E-05
   maximum displ.:     0.0724247 α      in ANC's #1, #2, #3, ...

........................................................................
.............................. CYCLE   37 ..............................
........................................................................
   1    -83.3779468 -0.833779E+02  0.871E-03    3.08       0.0  T
   2    -83.3779468 -0.939397E-08  0.525E-03    3.08       2.5  T
   3    -83.3779468  0.232965E-07  0.696E-04    3.08      18.5  T
   4    -83.3779468 -0.280060E-07  0.200E-04    3.08      64.5  T
     SCC iter.                  ...        0 min,  0.010 sec
     gradient                   ...        0 min,  0.026 sec
 * total energy  :   -82.2998577 Eh     change       -0.4833957E-05 Eh
   gradient norm :     0.0003199 Eh/α   predicted    -0.1820188E-05 ( -62.35%)
   displ. norm   :     0.0804648 α      lambda       -0.3036490E-05
   maximum displ.:     0.0579042 α      in ANC's #1, #2, #3, ...

   *** GEOMETRY OPTIMIZATION CONVERGED AFTER 37 ITERATIONS ***

------------------------------------------------------------------------
 total energy gain   :        -0.1782237 Eh     -111.8371 kcal/mol
 total RMSD          :         0.1942379 a0        0.1028 Å
 total power (kW/mol):       -12.6466589 (step) -250.2619 (real)
------------------------------------------------------------------------

 ANCopt (total)                0 d,  0 h,  0 min,  1.870 sec
 optimizer setup                ...        0 min,  0.000 sec (  0.005%)
 model hessian                  ...        0 min,  0.066 sec (  3.554%)
 ANC generation                 ...        0 min,  0.005 sec (  0.289%)
 coordinate transformation      ...        0 min,  0.001 sec (  0.029%)
 single point calculation       ...        0 min,  1.785 sec ( 95.469%)
 optimization log               ...        0 min,  0.007 sec (  0.392%)
 hessian update                 ...        0 min,  0.001 sec (  0.044%)
 rational function              ...        0 min,  0.003 sec (  0.139%)

================
 final structure:
================
60
 xtb: 6.5.0 (homebrew)
C            3.46547567323158      -37.74072676292381       15.92658649689138
C            3.71893445641103      -38.16220980427312       17.37233307292389
O            3.24087326248429      -37.14809557504011       18.25496769595609
C            2.91052404568992      -39.43044260872556       17.67427712524598
C            5.23498214040339      -38.29338216230162       17.76813595791836
C            5.76362160484341      -39.72470634474455       17.82713809518049
C            6.16004522486323      -37.45309283148391       16.87854672717917
O            5.28060710997678      -37.71655114839198       19.07307247644499
B            4.13979418503553      -36.99156326488646       19.27562780215207
C            3.88894552431181      -36.09262590348463       20.52194864358865
C            4.92111497522964      -35.91013161719312       21.42823416400395
C            4.96675680793474      -35.00164147334932       22.48533958057023
H            5.91254044514446      -34.90066737913550       23.00043648143791
C            3.81433509351462      -34.27126706138076       23.10503659808416
H            4.05426569982626      -33.87869467469863       24.09009478542603
C            2.45160884038149      -34.87821962169425       23.12322569741295
B            1.69553416571877      -34.89112370834412       24.48801019252424
O            2.20474418896999      -34.36878853856859       25.64558553631683
C            1.34173949907891      -34.72043514707164       26.72635958224311
C            1.19848047909492      -33.53137574875025       27.67354894858567
C            2.01555892083265      -35.87883674863368       27.47307988485801
C            0.01745004622080      -35.15169442028369       25.99734019356752
C           -1.00253720811537      -34.01113608549365       25.88887128069723
C           -0.66947326514946      -36.38259507527798       26.58471608842721
O            0.45820835367883      -35.44132142649067       24.67103436574965
C            1.90029597864751      -35.42946306964973       22.04174964129953
C            2.50015600707533      -35.53036725055997       20.69041441611513
H            1.81075981994405      -36.01615613645277       20.00261460018740
C            3.15182082434672      -34.35551840778749       20.04984796200197
C            3.85144270228825      -33.35402295171625       20.67551517822772
C            4.28099302654089      -33.37196559108874       22.00661091552356
H            4.93559740858688      -32.56808832868153       22.31578547470425
H            2.39277079226596      -37.69854698192673       15.75453697275347
H            3.90291016376046      -38.46325259281750       15.24298249075191
H            3.87700535118149      -36.75680859074514       15.72596723250563
H            1.85513240590538      -39.20864722936897       17.53259832064062
H            3.05436278180214      -39.72992689563166       18.70940712147082
H            3.19277603870551      -40.24349766251935       17.01227824738497
H            5.66085311621435      -40.20418778436954       16.85742228785420
H            5.23847774647883      -40.30616404401241       18.57779057448836
H            6.81620832760496      -39.69919944052690       18.09779807408197
H            6.20909936424488      -37.85508237503785       15.87106618526789
H            7.15704657821176      -37.46274318625452       17.31299438052726
H            5.81815336497950      -36.42156655513266       16.84824817309121
H            5.86046253541572      -36.37551037650086       21.15641495649379
H            2.16288890377329      -33.32862127335403       28.13275581456516
H            0.47815955734225      -33.75872840529206       28.45477779023369
H            0.88593928485098      -32.63953626518417       27.14021283922864
H            2.99805189260400      -35.55076031211887       27.80488580715754
H            2.15268526600501      -36.72597717270741       26.80570481301910
H            1.43300440298835      -36.18101153415041       28.33815550019243
H           -1.41678921500796      -33.76018144676708       26.86075179225322
H           -1.80798159342663      -34.33090706532082       25.23179359670722
H           -0.53859859539976      -33.13299830333531       25.44687149644031
H           -0.93057073284114      -36.20759494379970       27.62493722025905
H           -0.03306202369704      -37.25849976771261       26.51213811031071
H           -1.57845391860805      -36.57987189037840       26.02197540694637
H            0.91429701639924      -35.86199856027125       22.14374015497804
H            3.00546586807277      -34.27871290162341       18.98142969833345
H            4.28821928313069      -32.58950957458204       20.04415928061811

 Bond Distances (Angstroems)
 ---------------------------
C1-C2=1.5271         C1-H33=1.0872        C1-H34=1.0866        C1-H35=1.0852        C2-C1=1.5271         C2-O3=1.4269         
C2-C4=1.5340         C2-C5=1.5723         O3-C2=1.4269         O3-B9=1.3691         C4-C2=1.5340         C4-H36=1.0877        
C4-H37=1.0871        C4-H38=1.0858        C5-C2=1.5723         C5-C6=1.5270         C5-C7=1.5340         C5-O8=1.4275         
C6-C5=1.5270         C6-H39=1.0867        C6-H40=1.0851        C6-H41=1.0871        C7-C5=1.5340         C7-H42=1.0858        
C7-H43=1.0876        C7-H44=1.0871        O8-C5=1.4275         O8-B9=1.3668         B9-O3=1.3691         B9-O8=1.3668         
B9-C10=1.5570        C10-B9=1.5570        C10-C11=1.3857       C10-C27=1.5077       C10-C29=1.9452       C11-C10=1.3857       
C11-C12=1.3946       C11-H45=1.0830       C12-C11=1.3946       C12-H13=1.0817       C12-C14=1.4985       C12-C31=1.8317       
H13-C12=1.0817       C14-C12=1.4985       C14-H15=1.0872       C14-C16=1.4919       C14-C31=1.4943       H15-C14=1.0872       
C16-C14=1.4919       C16-B17=1.5603       C16-C26=1.3332       B17-C16=1.5603       B17-O18=1.3683       B17-O25=1.3665       
O18-B17=1.3683       O18-C19=1.4271       C19-O18=1.4271       C19-C20=1.5269       C19-C21=1.5341       C19-C22=1.5720       
C20-C19=1.5269       C20-H46=1.0872       C20-H47=1.0867       C20-H48=1.0851       C21-C19=1.5341       C21-H49=1.0877       
C21-H50=1.0871       C21-H51=1.0858       C22-C19=1.5720       C22-C23=1.5340       C22-C24=1.5271       C22-O25=1.4273       
C23-C22=1.5340       C23-H52=1.0859       C23-H53=1.0875       C23-H54=1.0871       C24-C22=1.5271       C24-H55=1.0867       
C24-H56=1.0851       C24-H57=1.0871       O25-B17=1.3665       O25-C22=1.4273       C26-C16=1.3332       C26-C27=1.4819       
C26-H58=1.0815       C27-C10=1.5077       C27-C26=1.4819       C27-H28=1.0883       C27-C29=1.4884       H28-C27=1.0883       
C29-C10=1.9452       C29-C27=1.4884       C29-C30=1.3726       C29-H59=1.0811       C30-C29=1.3726       C30-C31=1.3988       
C30-H60=1.0835       C31-C12=1.8317       C31-C14=1.4943       C31-C30=1.3988       C31-H32=1.0818       H32-C31=1.0818       
H33-C1=1.0872        H34-C1=1.0866        H35-C1=1.0852        H36-C4=1.0877        H37-C4=1.0871        H38-C4=1.0858        
H39-C6=1.0867        H40-C6=1.0851        H41-C6=1.0871        H42-C7=1.0858        H43-C7=1.0876        H44-C7=1.0871        
H45-C11=1.0830       H46-C20=1.0872       H47-C20=1.0867       H48-C20=1.0851       H49-C21=1.0877       H50-C21=1.0871       
H51-C21=1.0858       H52-C23=1.0859       H53-C23=1.0875       H54-C23=1.0871       H55-C24=1.0867       H56-C24=1.0851       
H57-C24=1.0871       H58-C26=1.0815       H59-C29=1.0811       H60-C30=1.0835       
 C  H  Rav=1.0858 sigma=0.0020  Rmin=1.0811  Rmax=1.0883    32
 C  B  Rav=1.5586 sigma=0.0016  Rmin=1.5570  Rmax=1.5603     2
 C  C  Rav=1.5223 sigma=0.1309  Rmin=1.3332  Rmax=1.9452    23
 O  B  Rav=1.3676 sigma=0.0011  Rmin=1.3665  Rmax=1.3691     4
 O  C  Rav=1.4272 sigma=0.0002  Rmin=1.4269  Rmax=1.4275     4

 selected bond angles (degree)
 --------------------
H33-C1-C2=108.92               H34-C1-C2=110.20               H34-C1-H33=108.87              H35-C1-C2=111.24               
H35-C1-H33=108.04              H35-C1-H34=109.51              O3-C2-C1=109.50                C4-C2-C1=109.09                
C4-C2-O3=106.81                C5-C2-C1=114.92                C5-C2-O3=103.10                C5-C2-C4=112.93                
B9-O3-C2=108.81                H36-C4-C2=108.49               H37-C4-C2=110.21               H37-C4-H36=107.97              
H38-C4-C2=111.23               H38-C4-H36=109.00              H38-C4-H37=109.87              C6-C5-C2=114.94                
C7-C5-C2=112.94                C7-C5-C6=109.09                O8-C5-C2=103.13                O8-C5-C6=109.41                
O8-C5-C7=106.83                H39-C6-C5=110.27               H40-C6-C5=111.19               H40-C6-H39=109.58              
H41-C6-C5=108.83               H41-C6-H39=108.91              H41-C6-H40=108.00              H42-C7-C5=111.25               
H43-C7-C5=108.44               H43-C7-H42=109.02              H44-C7-C5=110.26               H44-C7-H42=109.85              
H44-C7-H43=107.93              B9-O8-C5=108.85                O8-B9-O3=112.14                C10-B9-O3=123.85               
C10-B9-O8=124.01               C11-C10-B9=118.66              C27-C10-B9=116.95              C27-C10-C11=124.33             
C29-C10-B9=112.48              C29-C10-C11=108.87             C29-C10-C27= 49.08             

 selected dihedral angles (degree)
 ---------------------------------
O3-C2-C1-H33=294.41           O3-C2-C1-H34=175.04           O3-C2-C1-H35= 53.39           C4-C2-C1-H33= 50.98           
C4-C2-C1-H34=291.61           C4-C2-C1-H35=169.96           C5-C2-C1-H33=178.96           C5-C2-C1-H34= 59.60           
C5-C2-C1-H35=297.95           B9-O3-C2-C1=220.79            B9-O3-C2-C4=102.79            B9-O3-C2-C5=343.56            
H36-C4-C2-C1=299.72           H36-C4-C2-O3= 57.99           H36-C4-C2-C5=170.63           H37-C4-C2-C1=181.70           
H37-C4-C2-O3=299.97           H37-C4-C2-C5= 52.61           H38-C4-C2-C1= 59.60           H38-C4-C2-O3=177.87           
H38-C4-C2-C5=290.50           C6-C5-C2-C1=257.71            C6-C5-C2-O3=138.63            C6-C5-C2-C4= 23.73            
C7-C5-C2-C1= 23.77            C7-C5-C2-O3=264.68            C7-C5-C2-C4=149.79            O8-C5-C2-C1=138.70            
O8-C5-C2-O3= 19.62            O8-C5-C2-C4=264.72            H39-C6-C5-C2= 60.02           H39-C6-C5-C7=292.00           
H39-C6-C5-O8=175.46           H40-C6-C5-C2=298.26           H40-C6-C5-C7=170.24           H40-C6-C5-O8= 53.70           
H41-C6-C5-C2=179.42           H41-C6-C5-C7= 51.40           H41-C6-C5-O8=294.86           H42-C7-C5-C2=290.49           
H42-C7-C5-C6= 59.62           H42-C7-C5-O8=177.80           H43-C7-C5-C2=170.60           H43-C7-C5-C6=299.73           
H43-C7-C5-O8= 57.91           H44-C7-C5-C2= 52.63           H44-C7-C5-C6=181.76           H44-C7-C5-O8=299.94           
B9-O8-C5-C2=343.83            B9-O8-C5-C6=221.06            B9-O8-C5-C7=103.09            O8-B9-O3-C2=  7.22            
C10-B9-O3-C2=187.27           O3-B9-O8-C5=  6.73            C10-B9-O8-C5=186.68           C11-C10-B9-O3=186.10          
C11-C10-B9-O8=  6.16          C27-C10-B9-O3=  9.00          C27-C10-B9-O8=189.06          C29-C10-B9-O3=314.79          
C29-C10-B9-O8=134.85          
           -------------------------------------------------
          |                Final Singlepoint                |
           -------------------------------------------------

          ...................................................
          :                      SETUP                      :
          :.................................................:
          :  # basis functions                 144          :
          :  # atomic orbitals                 144          :
          :  # shells                           88          :
          :  # electrons                       150          :
          :  max. iterations                   250          :
          :  Hamiltonian                  GFN2-xTB          :
          :  restarted?                      false          :
          :  GBSA solvation                  false          :
          :  PC potential                    false          :
          :  electronic temp.          300.0000000     K    :
          :  accuracy                    1.0000000          :
          :  -> integral cutoff          0.2500000E+02      :
          :  -> integral neglect         0.1000000E-07      :
          :  -> SCF convergence          0.1000000E-05 Eh   :
          :  -> wf. convergence          0.1000000E-03 e    :
          :  Broyden damping             0.4000000          :
          ...................................................

 iter      E             dE          RMSdq      gap      omega  full diag
   1    -83.3779468 -0.833779E+02  0.117E-04    3.08       0.0  T
   2    -83.3779468 -0.596714E-10  0.922E-05    3.08     140.0  T
   3    -83.3779468 -0.338275E-09  0.488E-05    3.08     264.7  T

   *** convergence criteria satisfied after 3 iterations ***

         #    Occupation            Energy/Eh            Energy/eV
      -------------------------------------------------------------
         1        2.0000           -0.6889067             -18.7461
       ...           ...                  ...                  ...
        69        2.0000           -0.4070379             -11.0761
        70        2.0000           -0.3980439             -10.8313
        71        2.0000           -0.3972300             -10.8092
        72        2.0000           -0.3944807             -10.7344
        73        2.0000           -0.3831140             -10.4251
        74        2.0000           -0.3561646              -9.6917
        75        2.0000           -0.3391023              -9.2274 (HOMO)
        76                         -0.2257790              -6.1438 (LUMO)
        77                         -0.2062658              -5.6128
        78                         -0.1825635              -4.9678
        79                         -0.1136582              -3.0928
        80                         -0.0962193              -2.6183
       ...                                ...                  ...
       144                          0.6943237              18.8935
      -------------------------------------------------------------
                  HL-Gap            0.1133232 Eh            3.0837 eV
             Fermi-level           -0.2824407 Eh           -7.6856 eV

 SCC (total)                   0 d,  0 h,  0 min,  0.040 sec
 SCC setup                      ...        0 min,  0.000 sec (  0.516%)
 Dispersion                     ...        0 min,  0.000 sec (  0.836%)
 classical contributions        ...        0 min,  0.000 sec (  0.402%)
 integral evaluation            ...        0 min,  0.006 sec ( 13.834%)
 iterations                     ...        0 min,  0.008 sec ( 19.087%)
 molecular gradient             ...        0 min,  0.026 sec ( 64.591%)
 printout                       ...        0 min,  0.000 sec (  0.735%)

         :::::::::::::::::::::::::::::::::::::::::::::::::::::
         ::                     SUMMARY                     ::
         :::::::::::::::::::::::::::::::::::::::::::::::::::::
         :: total energy             -82.299857682285 Eh    ::
         :: gradient norm              0.000319142943 Eh/a0 ::
         :: HOMO-LUMO gap              3.083682231204 eV    ::
         ::.................................................::
         :: SCC energy               -83.377946807601 Eh    ::
         :: -> isotropic ES            0.147935426928 Eh    ::
         :: -> anisotropic ES          0.011572590274 Eh    ::
         :: -> anisotropic XC          0.026417394789 Eh    ::
         :: -> dispersion             -0.061152788678 Eh    ::
         :: repulsion energy           1.077421279284 Eh    ::
         :: add. restraining           0.000021713719 Eh    ::
         :: total charge               0.000000000000 e     ::
         :::::::::::::::::::::::::::::::::::::::::::::::::::::

           -------------------------------------------------
          |                Property Printout                |
           -------------------------------------------------

    * Orbital Energies and Occupations

         #    Occupation            Energy/Eh            Energy/eV
      -------------------------------------------------------------
         1        2.0000           -0.6889067             -18.7461
       ...           ...                  ...                  ...
        63        2.0000           -0.4350013             -11.8370
        64        2.0000           -0.4326922             -11.7742
        65        2.0000           -0.4307644             -11.7217
        66        2.0000           -0.4213795             -11.4663
        67        2.0000           -0.4194804             -11.4146
        68        2.0000           -0.4150284             -11.2935
        69        2.0000           -0.4070379             -11.0761
        70        2.0000           -0.3980439             -10.8313
        71        2.0000           -0.3972300             -10.8092
        72        2.0000           -0.3944807             -10.7344
        73        2.0000           -0.3831140             -10.4251
        74        2.0000           -0.3561646              -9.6917
        75        2.0000           -0.3391023              -9.2274 (HOMO)
        76                         -0.2257790              -6.1438 (LUMO)
        77                         -0.2062658              -5.6128
        78                         -0.1825635              -4.9678
        79                         -0.1136582              -3.0928
        80                         -0.0962193              -2.6183
        81                         -0.0493298              -1.3423
        82                          0.0084173               0.2290
        83                          0.0093820               0.2553
        84                          0.0280107               0.7622
        85                          0.0290864               0.7915
        86                          0.0570758               1.5531
       ...                                ...                  ...
       144                          0.6943237              18.8935
      -------------------------------------------------------------
                  HL-Gap            0.1133232 Eh            3.0837 eV
             Fermi-level           -0.2824407 Eh           -7.6856 eV

     #   Z          covCN         q      C6AA      α(0)
     1   6 C        3.755    -0.117    22.792     6.807
     2   6 C        3.859     0.129    18.447     6.108
     3   8 O        1.638    -0.376    20.395     6.096
     4   6 C        3.755    -0.116    22.777     6.805
     5   6 C        3.859     0.129    18.448     6.108
     6   6 C        3.755    -0.118    22.807     6.809
     7   6 C        3.755    -0.116    22.770     6.804
     8   8 O        1.638    -0.373    20.343     6.088
     9   5 B        2.659     0.435    15.530     6.635
    10   6 C        3.466    -0.070    24.158     7.386
    11   6 C        2.892    -0.053    29.318     8.877
    12   6 C        3.686    -0.016    21.061     6.570
    13   1 H        0.925     0.029     2.595     2.519
    14   6 C        3.865    -0.014    20.782     6.483
    15   1 H        0.925     0.045     2.385     2.415
    16   6 C        2.863    -0.083    30.082     8.990
    17   5 B        2.662     0.432    15.556     6.639
    18   8 O        1.638    -0.372    20.329     6.086
    19   6 C        3.860     0.129    18.455     6.109
    20   6 C        3.755    -0.117    22.799     6.808
    21   6 C        3.755    -0.116    22.779     6.805
    22   6 C        3.860     0.129    18.455     6.109
    23   6 C        3.755    -0.116    22.785     6.806
    24   6 C        3.755    -0.118    22.806     6.809
    25   8 O        1.638    -0.370    20.292     6.081
    26   6 C        2.896    -0.026    28.651     8.776
    27   6 C        3.863    -0.013    20.768     6.481
    28   1 H        0.925     0.044     2.398     2.422
    29   6 C        3.494    -0.016    22.602     7.070
    30   6 C        2.888    -0.058    29.452     8.897
    31   6 C        3.689    -0.013    20.999     6.559
    32   1 H        0.925     0.030     2.591     2.517
    33   1 H        0.925     0.054     2.268     2.355
    34   1 H        0.925     0.040     2.454     2.450
    35   1 H        0.925     0.051     2.304     2.374
    36   1 H        0.925     0.052     2.294     2.368
    37   1 H        0.925     0.044     2.400     2.422
    38   1 H        0.925     0.042     2.418     2.432
    39   1 H        0.925     0.040     2.449     2.447
    40   1 H        0.925     0.052     2.292     2.367
    41   1 H        0.925     0.055     2.264     2.353
    42   1 H        0.925     0.043     2.415     2.430
    43   1 H        0.925     0.052     2.292     2.368
    44   1 H        0.925     0.043     2.408     2.427
    45   1 H        0.925     0.031     2.572     2.508
    46   1 H        0.925     0.054     2.269     2.356
    47   1 H        0.925     0.040     2.453     2.449
    48   1 H        0.925     0.052     2.295     2.369
    49   1 H        0.925     0.052     2.296     2.370
    50   1 H        0.925     0.044     2.398     2.422
    51   1 H        0.925     0.042     2.417     2.431
    52   1 H        0.925     0.043     2.413     2.429
    53   1 H        0.925     0.053     2.288     2.366
    54   1 H        0.925     0.044     2.397     2.421
    55   1 H        0.925     0.040     2.450     2.448
    56   1 H        0.925     0.052     2.293     2.368
    57   1 H        0.925     0.055     2.264     2.353
    58   1 H        0.925     0.038     2.477     2.461
    59   1 H        0.926     0.031     2.571     2.507
    60   1 H        0.925     0.019     2.741     2.589

 Mol. C6AA /au·bohr⁶  :      32428.102054
 Mol. C8AA /au·bohr⁸  :     749790.849863
 Mol. α(0) /au        :        270.116336


Wiberg/Mayer (AO) data.
largest (>0.10) Wiberg bond orders for each atom

 ---------------------------------------------------------------------------
     #   Z sym  total        # sym  WBO       # sym  WBO       # sym  WBO
 ---------------------------------------------------------------------------
     1   6 C    3.994 --     2 C    0.997    34 H    0.984    33 H    0.983
                            35 H    0.982
     2   6 C    3.943 --     1 C    0.997     4 C    0.991     3 O    0.953
                             5 C    0.936
     3   8 O    2.225 --     9 B    1.122     2 C    0.953
     4   6 C    3.994 --     2 C    0.991    38 H    0.984    37 H    0.984
                            36 H    0.983
     5   6 C    3.942 --     6 C    0.997     7 C    0.991     8 O    0.952
                             2 C    0.936
     6   6 C    3.994 --     5 C    0.997    39 H    0.984    41 H    0.983
                            40 H    0.982
     7   6 C    3.995 --     5 C    0.991    42 H    0.984    44 H    0.984
                            43 H    0.983
     8   8 O    2.229 --     9 B    1.128     5 C    0.952
     9   5 B    3.380 --     8 O    1.128     3 O    1.122    10 C    1.008
    10   6 C    3.946 --    11 C    1.456     9 B    1.008    27 C    0.922
                            29 C    0.342
    11   6 C    3.986 --    10 C    1.456    12 C    1.369    45 H    0.963
    12   6 C    3.953 --    11 C    1.369    13 H    0.973    14 C    0.936
                            31 C    0.509
    13   1 H    0.999 --    12 C    0.973
    14   6 C    3.974 --    16 C    1.010    15 H    0.968    31 C    0.949
                            12 C    0.936
    15   1 H    0.998 --    14 C    0.968
    16   6 C    3.978 --    26 C    1.838    14 C    1.010    17 B    0.999
    17   5 B    3.376 --    25 O    1.132    18 O    1.127    16 C    0.999
    18   8 O    2.233 --    17 B    1.127    19 C    0.953
    19   6 C    3.943 --    20 C    0.997    21 C    0.991    18 O    0.953
                            22 C    0.937
    20   6 C    3.994 --    19 C    0.997    47 H    0.984    46 H    0.983
                            48 H    0.982
    21   6 C    3.994 --    19 C    0.991    51 H    0.984    50 H    0.984
                            49 H    0.983
    22   6 C    3.942 --    24 C    0.996    23 C    0.991    25 O    0.953
                            19 C    0.937
    23   6 C    3.995 --    22 C    0.991    52 H    0.984    54 H    0.984
                            53 H    0.983
    24   6 C    3.994 --    22 C    0.996    55 H    0.984    57 H    0.983
                            56 H    0.982
    25   8 O    2.235 --    17 B    1.132    22 C    0.953
    26   6 C    3.988 --    16 C    1.838    27 C    1.024    58 H    0.966
    27   6 C    3.981 --    26 C    1.024    28 H    0.969    29 C    0.957
                            10 C    0.922
    28   1 H    0.998 --    27 C    0.969
    29   6 C    3.961 --    30 C    1.504    59 H    0.972    27 C    0.957
                            10 C    0.342
    30   6 C    3.981 --    29 C    1.504    31 C    1.344    60 H    0.965
    31   6 C    3.944 --    30 C    1.344    32 H    0.974    14 C    0.949
                            12 C    0.509
    32   1 H    0.999 --    31 C    0.974
    33   1 H    0.997 --     1 C    0.983
    34   1 H    0.998 --     1 C    0.984
    35   1 H    0.997 --     1 C    0.982
    36   1 H    0.997 --     4 C    0.983
    37   1 H    0.998 --     4 C    0.984
    38   1 H    0.998 --     4 C    0.984
    39   1 H    0.998 --     6 C    0.984
    40   1 H    0.997 --     6 C    0.982
    41   1 H    0.997 --     6 C    0.983
    42   1 H    0.998 --     7 C    0.984
    43   1 H    0.997 --     7 C    0.983
    44   1 H    0.998 --     7 C    0.984
    45   1 H    0.999 --    11 C    0.963
    46   1 H    0.997 --    20 C    0.983
    47   1 H    0.998 --    20 C    0.984
    48   1 H    0.997 --    20 C    0.982
    49   1 H    0.997 --    21 C    0.983
    50   1 H    0.998 --    21 C    0.984
    51   1 H    0.998 --    21 C    0.984
    52   1 H    0.998 --    23 C    0.984
    53   1 H    0.997 --    23 C    0.983
    54   1 H    0.998 --    23 C    0.984
    55   1 H    0.998 --    24 C    0.984
    56   1 H    0.997 --    24 C    0.982
    57   1 H    0.997 --    24 C    0.983
    58   1 H    0.998 --    26 C    0.966
    59   1 H    0.999 --    29 C    0.972
    60   1 H    0.999 --    30 C    0.965
 ---------------------------------------------------------------------------

Topologies differ in total number of bonds
Writing topology from bond orders to xtbtopo.mol

molecular dipole:
                 x           y           z       tot (Debye)
 q only:       -0.257      -0.411       0.112
   full:       -0.116      -0.474       0.022       1.241
molecular quadrupole (traceless):
                xx          xy          yy          xz          yz          zz
 q only:      -44.498      20.091      45.017     -27.353     -26.665      -0.520
  q+dip:      -43.278       7.882      53.170     -19.591     -19.144      -9.892
   full:      -44.136       6.554      54.998     -20.799     -20.520     -10.862

           -------------------------------------------------
          |                Geometry Summary                 |
           -------------------------------------------------

      molecular mass/u    :      382.1099696
   center of mass at/Å    :        2.9410363     -35.9414835      21.8386875
  moments of inertia/u·Å² :        0.1190993E+04   0.6844723E+04   0.7163183E+04
rotational constants/cm⁻¹ :        0.1415427E-01   0.2462866E-02   0.2353372E-02

 * 60 selected distances

     #   Z          #   Z                                           value/Å
     1   6 C        2   6 C                                       1.5271126
     2   6 C        3   8 O                                       1.4268898
     2   6 C        4   6 C                                       1.5339858
     5   6 C        6   6 C                                       1.5269677
     5   6 C        7   6 C                                       1.5340135
     5   6 C        8   8 O                                       1.4274717
     3   8 O        9   5 B                                       1.3690539
     8   8 O        9   5 B                                       1.3667811
     9   5 B       10   6 C                                       1.5570259
    10   6 C       11   6 C                                       1.3856521
    11   6 C       12   6 C                                       1.3946002
    12   6 C       13   1 H                                       1.0816781
    12   6 C       14   6 C                                       1.4985151
    14   6 C       15   1 H                                       1.0872073
    16   6 C       17   5 B                                       1.5602732 (max)
    17   5 B       18   8 O                                       1.3682507
    18   8 O       19   6 C                                       1.4270618
    19   6 C       20   6 C                                       1.5269425
    19   6 C       21   6 C                                       1.5341182
    22   6 C       23   6 C                                       1.5339535
    22   6 C       24   6 C                                       1.5270858
    17   5 B       25   8 O                                       1.3664519
    22   6 C       25   8 O                                       1.4273189
    16   6 C       26   6 C                                       1.3331939
    10   6 C       27   6 C                                       1.5077308
    26   6 C       27   6 C                                       1.4819315
    27   6 C       28   1 H                                       1.0882678
    27   6 C       29   6 C                                       1.4883758
    29   6 C       30   6 C                                       1.3725610
    14   6 C       31   6 C                                       1.4943400
    30   6 C       31   6 C                                       1.3988036
    31   6 C       32   1 H                                       1.0818108
     1   6 C       33   1 H                                       1.0872333
     1   6 C       34   1 H                                       1.0866035
     1   6 C       35   1 H                                       1.0852189
     4   6 C       36   1 H                                       1.0877122
     4   6 C       37   1 H                                       1.0871406
     4   6 C       38   1 H                                       1.0858027
     6   6 C       39   1 H                                       1.0866521
     6   6 C       40   1 H                                       1.0850569
     6   6 C       41   1 H                                       1.0871276
     7   6 C       42   1 H                                       1.0858265
     7   6 C       43   1 H                                       1.0875890
     7   6 C       44   1 H                                       1.0871314
    11   6 C       45   1 H                                       1.0829761
    20   6 C       46   1 H                                       1.0872277
    20   6 C       47   1 H                                       1.0866785
    20   6 C       48   1 H                                       1.0851301
    21   6 C       49   1 H                                       1.0876681
    21   6 C       50   1 H                                       1.0871248
    21   6 C       51   1 H                                       1.0858340
    23   6 C       52   1 H                                       1.0858798
    23   6 C       53   1 H                                       1.0875410
    23   6 C       54   1 H                                       1.0870736
    24   6 C       55   1 H                                       1.0866725
    24   6 C       56   1 H                                       1.0851249
    24   6 C       57   1 H                                       1.0871252
    26   6 C       58   1 H                                       1.0815189
    29   6 C       59   1 H                                       1.0811275 (min)
    30   6 C       60   1 H                                       1.0834505

 * 5 distinct bonds (by element types)

   Z      Z             #   av. dist./Å        max./Å        min./Å
   1 H    6 C          32     1.0858191     1.0882678     1.0811275
   5 B    6 C           2     1.5586496     1.5602732     1.5570259
   6 C    6 C          18     1.4777713     1.5341182     1.3331939
   5 B    8 O           4     1.3676344     1.3690539     1.3664519
   6 C    8 O           4     1.4271855     1.4274717     1.4268898


optimized geometry written to: xtbopt.xyz


           -------------------------------------------------
          | TOTAL ENERGY              -82.299857682285 Eh   |
          | GRADIENT NORM               0.000319142943 Eh/α |
          | HOMO-LUMO GAP               3.083682231204 eV   |
           -------------------------------------------------

------------------------------------------------------------------------
 * finished run on 2022/07/09 at 18:33:20.214     
------------------------------------------------------------------------
 total:
 * wall-time:     0 d,  0 h,  0 min,  1.990 sec
 *  cpu-time:     0 d,  0 h,  0 min,  1.987 sec
 * ratio c/w:     0.998 speedup
 SCF:
 * wall-time:     0 d,  0 h,  0 min,  0.068 sec
 *  cpu-time:     0 d,  0 h,  0 min,  0.068 sec
 * ratio c/w:     0.999 speedup
 ANC optimizer:
 * wall-time:     0 d,  0 h,  0 min,  1.911 sec
 *  cpu-time:     0 d,  0 h,  0 min,  1.908 sec
 * ratio c/w:     0.998 speedup

