      -----------------------------------------------------------      
     |                   =====================                   |     
     |                           x T B                           |     
     |                   =====================                   |     
     |                         S. Grimme                         |     
     |          Mulliken Center for Theoretical Chemistry        |     
     |                    University of Bonn                     |     
      -----------------------------------------------------------      

   * xtb version 6.5.0 (homebrew) compiled by 'nhattrup@GPGGRP-SHANNON.CHEME.CMU.EDU' on 

   xtb is free software: you can redistribute it and/or modify it under
   the terms of the GNU Lesser General Public License as published by
   the Free Software Foundation, either version 3 of the License, or
   (at your option) any later version.
   
   xtb is distributed in the hope that it will be useful,
   but WITHOUT ANY WARRANTY; without even the implied warranty of
   MERCHANTABILITY or FITNESS FOR A PARTICULAR PURPOSE.  See the
   GNU Lesser General Public License for more details.
   
   Cite this work as:
   * C. Bannwarth, E. Caldeweyher, S. Ehlert, A. Hansen, P. Pracht,
     J. Seibert, S. Spicher, S. Grimme, WIREs Comput. Mol. Sci., 2020, 11,
     e01493. DOI: 10.1002/wcms.1493
   
   for GFN2-xTB:
   * C. Bannwarth, S. Ehlert and S. Grimme., J. Chem. Theory Comput., 2019,
     15, 1652-1671. DOI: 10.1021/acs.jctc.8b01176
   for GFN1-xTB:
   * S. Grimme, C. Bannwarth, P. Shushkov, J. Chem. Theory Comput., 2017,
     13, 1989-2009. DOI: 10.1021/acs.jctc.7b00118
   for GFN0-xTB:
   * P. Pracht, E. Caldeweyher, S. Ehlert, S. Grimme, ChemRxiv, 2019, preprint.
     DOI: 10.26434/chemrxiv.8326202.v1
   for GFN-FF:
   * S. Spicher and S. Grimme, Angew. Chem. Int. Ed., 2020, 59, 15665-15673.
     DOI: 10.1002/anie.202004239
   
   for ALPB and GBSA implicit solvation:
   * S. Ehlert, M. Stahn, S. Spicher, S. Grimme, J. Chem. Theory Comput.,
     2021, 17, 4250-4261. DOI: 10.1021/acs.jctc.1c00471
   
   for DFT-D4:
   * E. Caldeweyher, C. Bannwarth and S. Grimme, J. Chem. Phys., 2017,
     147, 034112. DOI: 10.1063/1.4993215
   * E. Caldeweyher, S. Ehlert, A. Hansen, H. Neugebauer, S. Spicher,
     C. Bannwarth and S. Grimme, J. Chem. Phys., 2019, 150, 154122.
     DOI: 10.1063/1.5090222
   * E. Caldeweyher, J.-M. Mewes, S. Ehlert and S. Grimme, Phys. Chem. Chem. Phys.
     2020, 22, 8499-8512. DOI: 10.1039/D0CP00502A
   
   for sTDA-xTB:
   * S. Grimme and C. Bannwarth, J. Chem. Phys., 2016, 145, 054103.
     DOI: 10.1063/1.4959605
   
   in the mass-spec context:
   * V. Asgeirsson, C. Bauer and S. Grimme, Chem. Sci., 2017, 8, 4879.
     DOI: 10.1039/c7sc00601b
   * J. Koopman and S. Grimme, ACS Omega 2019, 4, 12, 15120-15133.
     DOI: 10.1021/acsomega.9b02011
   
   for metadynamics refer to:
   * S. Grimme, J. Chem. Theory Comput., 2019, 155, 2847-2862
     DOI: 10.1021/acs.jctc.9b00143
   
   for SPH calculations refer to:
   * S. Spicher and S. Grimme, J. Chem. Theory Comput., 2021, 17, 1701-1714
     DOI: 10.1021/acs.jctc.0c01306
   
   with help from (in alphabetical order)
   P. Atkinson, C. Bannwarth, F. Bohle, G. Brandenburg, E. Caldeweyher
   M. Checinski, S. Dohm, S. Ehlert, S. Ehrlich, I. Gerasimov, C. Hölzer
   A. Katbashev, J. Koopman, C. Lavigne, S. Lehtola, F. März, M. Müller,
   F. Musil, H. Neugebauer, J. Pisarek, C. Plett, P. Pracht, F. Pultar,
   J. Seibert, P. Shushkov, S. Spicher, M. Stahn, M. Steiner, T. Strunk,
   J. Stückrath, T. Rose, and J. Unsleber
   
 * started run on 2022/07/09 at 18:33:32.283     

           -------------------------------------------------
          |                Calculation Setup                |
           -------------------------------------------------

          program call               : /opt/homebrew/bin/xtb bvl_bpin2_scan_9-3_xtb.xyz --chrg 0 --uhf 0 --opt --input xcontrol_bvl_bpin2_scan_9-3_xtb
          coordinate file            : bvl_bpin2_scan_9-3_xtb.xyz
          omp threads                :                     1

   ID    Z sym.   atoms
    1    6 C      1, 2, 4-7, 10-12, 14, 16, 19-24, 26, 27, 29-31
    2    8 O      3, 8, 18, 25
    3    5 B      9, 17
    4    1 H      13, 15, 28, 32-60
constraining bond 12 31 to    2.5000000 Å, actual value:    2.3860124 Å
constraining bond 10 29 to    2.1667000 Å, actual value:    2.2739897 Å

           -------------------------------------------------
          |                 G F N 2 - x T B                 |
           -------------------------------------------------

        Reference                      10.1021/acs.jctc.8b01176
      * Hamiltonian:
        H0-scaling (s, p, d)           1.850000    2.230000    2.230000
        zeta-weighting                 0.500000
      * Dispersion:
        s8                             2.700000
        a1                             0.520000
        a2                             5.000000
        s9                             5.000000
      * Repulsion:
        kExp                           1.500000    1.000000
        rExp                           1.000000
      * Coulomb:
        alpha                          2.000000
        third order                    shell-resolved
        anisotropic                    true
        a3                             3.000000
        a5                             4.000000
        cn-shift                       1.200000
        cn-exp                         4.000000
        max-rad                        5.000000


          ...................................................
          :                      SETUP                      :
          :.................................................:
          :  # basis functions                 144          :
          :  # atomic orbitals                 144          :
          :  # shells                           88          :
          :  # electrons                       150          :
          :  max. iterations                   250          :
          :  Hamiltonian                  GFN2-xTB          :
          :  restarted?                      false          :
          :  GBSA solvation                  false          :
          :  PC potential                    false          :
          :  electronic temp.          300.0000000     K    :
          :  accuracy                    1.0000000          :
          :  -> integral cutoff          0.2500000E+02      :
          :  -> integral neglect         0.1000000E-07      :
          :  -> SCF convergence          0.1000000E-05 Eh   :
          :  -> wf. convergence          0.1000000E-03 e    :
          :  Broyden damping             0.4000000          :
          ...................................................

 iter      E             dE          RMSdq      gap      omega  full diag
   1    -82.9134799 -0.829135E+02  0.477E+00    1.37       0.0  T
   2    -83.2463212 -0.332841E+00  0.302E+00    1.37       1.0  T
   3    -83.1293535  0.116968E+00  0.231E+00    2.03       1.0  T
   4    -83.1818782 -0.525246E-01  0.160E+00    1.70       1.0  T
   5    -83.3393740 -0.157496E+00  0.405E-01    1.36       1.0  T
   6    -83.3487387 -0.936471E-02  0.134E-01    1.34       1.0  T
   7    -83.3487251  0.135503E-04  0.610E-02    1.34       1.0  T
   8    -83.3488351 -0.109934E-03  0.202E-02    1.34       1.0  T
   9    -83.3488536 -0.185116E-04  0.900E-03    1.34       1.4  T
  10    -83.3488564 -0.283299E-05  0.412E-03    1.34       3.1  T
  11    -83.3488568 -0.352399E-06  0.216E-03    1.34       6.0  T
  12    -83.3488570 -0.218398E-06  0.597E-04    1.34      21.6  T
  13    -83.3488570 -0.109806E-07  0.350E-04    1.34      36.9  T

   *** convergence criteria satisfied after 13 iterations ***

         #    Occupation            Energy/Eh            Energy/eV
      -------------------------------------------------------------
         1        2.0000           -0.6869071             -18.6917
       ...           ...                  ...                  ...
        69        2.0000           -0.3997716             -10.8783
        70        2.0000           -0.3984328             -10.8419
        71        2.0000           -0.3961987             -10.7811
        72        2.0000           -0.3959623             -10.7747
        73        2.0000           -0.3907111             -10.6318
        74        2.0000           -0.3654333              -9.9439
        75        2.0000           -0.3270230              -8.8987 (HOMO)
        76                         -0.2779252              -7.5627 (LUMO)
        77                         -0.2182650              -5.9393
        78                         -0.1841028              -5.0097
        79                         -0.1488771              -4.0512
        80                         -0.0947223              -2.5775
       ...                                ...                  ...
       144                          0.6772772              18.4297
      -------------------------------------------------------------
                  HL-Gap            0.0490977 Eh            1.3360 eV
             Fermi-level           -0.3024741 Eh           -8.2307 eV

 SCC (total)                   0 d,  0 h,  0 min,  0.072 sec
 SCC setup                      ...        0 min,  0.000 sec (  0.410%)
 Dispersion                     ...        0 min,  0.000 sec (  0.633%)
 classical contributions        ...        0 min,  0.000 sec (  0.284%)
 integral evaluation            ...        0 min,  0.006 sec (  8.876%)
 iterations                     ...        0 min,  0.036 sec ( 50.733%)
 molecular gradient             ...        0 min,  0.028 sec ( 38.560%)
 printout                       ...        0 min,  0.000 sec (  0.496%)

         :::::::::::::::::::::::::::::::::::::::::::::::::::::
         ::                     SUMMARY                     ::
         :::::::::::::::::::::::::::::::::::::::::::::::::::::
         :: total energy             -82.101941499204 Eh    ::
         :: gradient norm              1.679653034992 Eh/a0 ::
         :: HOMO-LUMO gap              1.336017374575 eV    ::
         ::.................................................::
         :: SCC energy               -83.348856981134 Eh    ::
         :: -> isotropic ES            0.147646066721 Eh    ::
         :: -> anisotropic ES          0.012331524296 Eh    ::
         :: -> anisotropic XC          0.027738923166 Eh    ::
         :: -> dispersion             -0.062585599493 Eh    ::
         :: repulsion energy           1.071175673897 Eh    ::
         :: add. restraining           0.175012525871 Eh    ::
         :: total charge              -0.000000000000 e     ::
         :::::::::::::::::::::::::::::::::::::::::::::::::::::

      ----------------------------------------------------------- 
     |                   =====================                   |
     |                        A N C O P T                        |
     |                   =====================                   |
     |               Approximate Normal Coordinate               |
     |                Rational Function Optimizer                |
      ----------------------------------------------------------- 

          ...................................................
          :                      SETUP                      :
          :.................................................:
          :   optimization level            normal          :
          :   max. optcycles                   200          :
          :   ANC micro-cycles                  20          :
          :   degrees of freedom               174          :
          :.................................................:
          :   RF solver                   davidson          :
          :   write xtbopt.log                true          :
          :   linear?                        false          :
          :   energy convergence         0.5000000E-05 Eh   :
          :   grad. convergence          0.1000000E-02 Eh/α :
          :   maximium RF displ.         1.0000000          :
          :   Hlow (freq-cutoff)         0.1000000E-01      :
          :   Hmax (freq-cutoff)         5.0000000          :
          :   S6 in model hess.         20.0000000          :
          ...................................................

generating ANC from model Hessian ...
Using Lindh-Hessian (1995)
 Shifting diagonal of input Hessian by   0.20353430440623638     
 Lowest  eigenvalues of input Hessian
    0.010000    0.153905    0.000000    0.000000    0.000000    0.000000
    0.000000    0.000000    0.203643    0.203673    0.203824    0.205157
    0.205412    0.206404    0.206829    0.206899    0.208002    0.208632
 Highest eigenvalues
    1.913888    2.083505    2.091238    2.160655    8.781449    8.851838


........................................................................
.............................. CYCLE    1 ..............................
........................................................................
   1    -83.3488570 -0.833489E+02  0.205E-04    1.34       0.0  T
   2    -83.3488570  0.841612E-08  0.382E-04    1.34      33.8  T
   3    -83.3488570 -0.101041E-07  0.905E-05    1.34     142.7  T
     SCC iter.                  ...        0 min,  0.008 sec
     gradient                   ...        0 min,  0.028 sec
 * total energy  :   -82.1019415 Eh     change       -0.3859540E-08 Eh
   gradient norm :     1.6796557 Eh/α   predicted     0.0000000E+00 (-100.00%)
   displ. norm   :     0.3116422 α      lambda       -0.5164456E+00
   maximum displ.:     0.2848470 α      in ANC's #174, #173, #127, ...

........................................................................
.............................. CYCLE    2 ..............................
........................................................................
   1    -83.3426847 -0.833427E+02  0.294E-01    1.64       0.0  T
   2    -83.3420623  0.622392E-03  0.287E-01    1.61       1.0  T
   3    -83.3450690 -0.300668E-02  0.144E-01    1.63       1.0  T
   4    -83.3441926  0.876395E-03  0.125E-01    1.64       1.0  T
   5    -83.3451481 -0.955518E-03  0.318E-02    1.62       1.0  T
   6    -83.3452070 -0.588965E-04  0.689E-03    1.62       1.9  T
   7    -83.3452087 -0.167537E-05  0.320E-03    1.62       4.0  T
   8    -83.3452089 -0.206154E-06  0.980E-04    1.62      13.2  T
   9    -83.3452089 -0.135289E-07  0.354E-04    1.62      36.5  T
     SCC iter.                  ...        0 min,  0.024 sec
     gradient                   ...        0 min,  0.028 sec
 * total energy  :   -82.2320088 Eh     change       -0.1300672E+00 Eh
   gradient norm :     0.8448460 Eh/α   predicted    -0.2833984E+00 ( 117.89%)
   displ. norm   :     0.1062011 α      lambda       -0.8596857E-01
   maximum displ.:     0.0942344 α      in ANC's #174, #173, #37, ...

........................................................................
.............................. CYCLE    3 ..............................
........................................................................
   1    -83.3466847 -0.833467E+02  0.107E-01    1.51       0.0  T
   2    -83.3465940  0.906285E-04  0.101E-01    1.52       1.0  T
   3    -83.3469690 -0.374991E-03  0.535E-02    1.52       1.0  T
   4    -83.3467980  0.171060E-03  0.567E-02    1.51       1.0  T
   5    -83.3470000 -0.202049E-03  0.122E-02    1.52       1.1  T
   6    -83.3470088 -0.876046E-05  0.262E-03    1.52       4.9  T
   7    -83.3470091 -0.267195E-06  0.119E-03    1.52      10.8  T
   8    -83.3470091 -0.245955E-07  0.356E-04    1.52      36.2  T
   9    -83.3470091 -0.168100E-08  0.126E-04    1.52     102.3  T
     SCC iter.                  ...        0 min,  0.025 sec
     gradient                   ...        0 min,  0.028 sec
 * total energy  :   -82.2759166 Eh     change       -0.4390781E-01 Eh
   gradient norm :     0.0253604 Eh/α   predicted    -0.4346951E-01 (  -1.00%)
   displ. norm   :     0.0424632 α      lambda       -0.7147299E-03
   maximum displ.:     0.0175883 α      in ANC's #37, #36, #127, ...

........................................................................
.............................. CYCLE    4 ..............................
........................................................................
   1    -83.3464499 -0.833464E+02  0.277E-02    1.52       0.0  T
   2    -83.3464504 -0.563443E-06  0.169E-02    1.52       1.0  T
   3    -83.3464381  0.123765E-04  0.140E-02    1.52       1.0  T
   4    -83.3464515 -0.133878E-04  0.390E-03    1.52       3.3  T
   5    -83.3464520 -0.557581E-06  0.243E-03    1.52       5.3  T
   6    -83.3464524 -0.393645E-06  0.438E-04    1.52      29.5  T
   7    -83.3464524 -0.410395E-08  0.222E-04    1.52      58.2  T
     SCC iter.                  ...        0 min,  0.019 sec
     gradient                   ...        0 min,  0.034 sec
 * total energy  :   -82.2765501 Eh     change       -0.6335603E-03 Eh
   gradient norm :     0.0141273 Eh/α   predicted    -0.3856121E-03 ( -39.14%)
   displ. norm   :     0.1236775 α      lambda       -0.1326582E-02
   maximum displ.:     0.0547082 α      in ANC's #37, #36, #38, ...

........................................................................
.............................. CYCLE    5 ..............................
........................................................................
   1    -83.3452090 -0.833452E+02  0.766E-02    1.52       0.0  T
   2    -83.3452049  0.413458E-05  0.462E-02    1.52       1.0  T
   3    -83.3450096  0.195252E-03  0.558E-02    1.53       1.0  T
   4    -83.3452091 -0.199470E-03  0.123E-02    1.52       1.0  T
   5    -83.3452191 -0.100019E-04  0.308E-03    1.52       4.2  T
   6    -83.3452197 -0.584138E-06  0.967E-04    1.52      13.3  T
   7    -83.3452197 -0.124793E-07  0.531E-04    1.52      24.3  T
     SCC iter.                  ...        0 min,  0.019 sec
     gradient                   ...        0 min,  0.028 sec
 * total energy  :   -82.2772821 Eh     change       -0.7319423E-03 Eh
   gradient norm :     0.0153562 Eh/α   predicted    -0.6735030E-03 (  -7.98%)
   displ. norm   :     0.2802571 α      lambda       -0.1148008E-02
   maximum displ.:     0.2483004 α      in ANC's #1, #37, #36, ...

........................................................................
.............................. CYCLE    6 ..............................
........................................................................
   1    -83.3407987 -0.833408E+02  0.168E-01    1.50       0.0  T
   2    -83.3407658  0.329661E-04  0.103E-01    1.51       1.0  T
   3    -83.3395705  0.119521E-02  0.138E-01    1.50       1.0  T
   4    -83.3408144 -0.124383E-02  0.770E-03    1.50       1.7  T
   5    -83.3408178 -0.340118E-05  0.303E-03    1.50       4.3  T
   6    -83.3408179 -0.126204E-06  0.181E-03    1.50       7.1  T
   7    -83.3408180 -0.835652E-07  0.656E-04    1.50      19.7  T
   8    -83.3408180 -0.234180E-07  0.240E-04    1.50      53.8  T
     SCC iter.                  ...        0 min,  0.022 sec
     gradient                   ...        0 min,  0.028 sec
 * total energy  :   -82.2754293 Eh     change        0.1852762E-02 Eh
   gradient norm :     0.0494156 Eh/α   predicted    -0.6191743E-03 (-133.42%)
   displ. norm   :     0.2034050 α      lambda       -0.4400466E-02
   maximum displ.:     0.1987258 α      in ANC's #1, #37, #113, ...

........................................................................
.............................. CYCLE    7 ..............................
........................................................................
   1    -83.3458571 -0.833459E+02  0.128E-01    1.52       0.0  T
   2    -83.3458138  0.433778E-04  0.793E-02    1.52       1.0  T
   3    -83.3449879  0.825821E-03  0.119E-01    1.53       1.0  T
   4    -83.3458728 -0.884872E-03  0.719E-03    1.52       1.8  T
   5    -83.3458758 -0.300240E-05  0.227E-03    1.52       5.7  T
   6    -83.3458759 -0.500388E-07  0.138E-03    1.52       9.3  T
   7    -83.3458759 -0.563324E-07  0.494E-04    1.52      26.1  T
   8    -83.3458759 -0.153804E-07  0.187E-04    1.52      69.1  T
     SCC iter.                  ...        0 min,  0.022 sec
     gradient                   ...        0 min,  0.028 sec
 * total energy  :   -82.2776869 Eh     change       -0.2257556E-02 Eh
   gradient norm :     0.0164195 Eh/α   predicted    -0.2291412E-02 (   1.50%)
   displ. norm   :     0.0395210 α      lambda       -0.2451786E-03
   maximum displ.:     0.0170816 α      in ANC's #37, #1, #36, ...

........................................................................
.............................. CYCLE    8 ..............................
........................................................................
   1    -83.3465962 -0.833466E+02  0.215E-02    1.52       0.0  T
   2    -83.3465953  0.892273E-06  0.130E-02    1.52       1.0  T
   3    -83.3465735  0.218144E-04  0.195E-02    1.52       1.0  T
   4    -83.3465967 -0.231510E-04  0.111E-03    1.52      11.6  T
   5    -83.3465967 -0.676684E-07  0.606E-04    1.52      21.3  T
   6    -83.3465968 -0.227248E-07  0.228E-04    1.52      56.6  T
     SCC iter.                  ...        0 min,  0.016 sec
     gradient                   ...        0 min,  0.028 sec
 * total energy  :   -82.2778890 Eh     change       -0.2021530E-03 Eh
   gradient norm :     0.0108817 Eh/α   predicted    -0.1227854E-03 ( -39.26%)
   displ. norm   :     0.1469815 α      lambda       -0.6490214E-03
   maximum displ.:     0.0714718 α      in ANC's #37, #36, #32, ...

........................................................................
.............................. CYCLE    9 ..............................
........................................................................
   1    -83.3484768 -0.833485E+02  0.739E-02    1.51       0.0  T
   2    -83.3484741  0.271785E-05  0.436E-02    1.51       1.0  T
   3    -83.3483149  0.159229E-03  0.510E-02    1.51       1.0  T
   4    -83.3484797 -0.164805E-03  0.349E-03    1.51       3.7  T
   5    -83.3484804 -0.650560E-06  0.139E-03    1.51       9.3  T
   6    -83.3484804 -0.633667E-07  0.614E-04    1.51      21.0  T
   7    -83.3484804 -0.208412E-08  0.357E-04    1.51      36.2  T
     SCC iter.                  ...        0 min,  0.019 sec
     gradient                   ...        0 min,  0.028 sec
 * total energy  :   -82.2782714 Eh     change       -0.3823854E-03 Eh
   gradient norm :     0.0120039 Eh/α   predicted    -0.3314546E-03 ( -13.32%)
   displ. norm   :     0.0693174 α      lambda       -0.1461771E-03
   maximum displ.:     0.0316872 α      in ANC's #37, #36, #32, ...

........................................................................
.............................. CYCLE   10 ..............................
........................................................................
   1    -83.3490698 -0.833491E+02  0.332E-02    1.50       0.0  T
   2    -83.3490697  0.975293E-07  0.195E-02    1.50       1.0  T
   3    -83.3490555  0.142117E-04  0.146E-02    1.50       1.0  T
   4    -83.3490699 -0.143490E-04  0.249E-03    1.50       5.2  T
   5    -83.3490703 -0.400066E-06  0.768E-04    1.50      16.8  T
   6    -83.3490703 -0.299727E-07  0.254E-04    1.50      50.8  T
     SCC iter.                  ...        0 min,  0.016 sec
     gradient                   ...        0 min,  0.028 sec
 * total energy  :   -82.2783711 Eh     change       -0.9974272E-04 Eh
   gradient norm :     0.0061824 Eh/α   predicted    -0.7347040E-04 ( -26.34%)
   displ. norm   :     0.0556042 α      lambda       -0.9903821E-04
   maximum displ.:     0.0194955 α      in ANC's #37, #17, #32, ...

........................................................................
.............................. CYCLE   11 ..............................
........................................................................
   1    -83.3498113 -0.833498E+02  0.255E-02    1.49       0.0  T
   2    -83.3498114 -0.985117E-07  0.151E-02    1.49       1.0  T
   3    -83.3498074  0.402856E-05  0.776E-03    1.49       1.7  T
   4    -83.3498113 -0.393540E-05  0.214E-03    1.49       6.0  T
   5    -83.3498116 -0.262157E-06  0.795E-04    1.49      16.2  T
   6    -83.3498116 -0.377112E-07  0.188E-04    1.49      68.7  T
     SCC iter.                  ...        0 min,  0.017 sec
     gradient                   ...        0 min,  0.028 sec
 * total energy  :   -82.2784410 Eh     change       -0.6984853E-04 Eh
   gradient norm :     0.0040032 Eh/α   predicted    -0.4971830E-04 ( -28.82%)
   displ. norm   :     0.0442630 α      lambda       -0.7349116E-04
   maximum displ.:     0.0175511 α      in ANC's #17, #32, #30, ...

........................................................................
.............................. CYCLE   12 ..............................
........................................................................
   1    -83.3505166 -0.833505E+02  0.183E-02    1.48       0.0  T
   2    -83.3505167 -0.533322E-07  0.109E-02    1.48       1.2  T
   3    -83.3505134  0.323878E-05  0.705E-03    1.48       1.8  T
   4    -83.3505166 -0.315374E-05  0.207E-03    1.48       6.2  T
   5    -83.3505168 -0.249509E-06  0.611E-04    1.48      21.1  T
   6    -83.3505169 -0.211636E-07  0.185E-04    1.48      69.8  T
     SCC iter.                  ...        0 min,  0.016 sec
     gradient                   ...        0 min,  0.028 sec
 * total energy  :   -82.2784941 Eh     change       -0.5312622E-04 Eh
   gradient norm :     0.0036070 Eh/α   predicted    -0.3683549E-04 ( -30.66%)
   displ. norm   :     0.0436057 α      lambda       -0.6238437E-04
   maximum displ.:     0.0183554 α      in ANC's #17, #30, #14, ...

........................................................................
.............................. CYCLE   13 ..............................
........................................................................
   1    -83.3510972 -0.833511E+02  0.162E-02    1.48       0.0  T
   2    -83.3510971  0.244072E-07  0.977E-03    1.48       1.3  T
   3    -83.3510924  0.475053E-05  0.849E-03    1.48       1.5  T
   4    -83.3510971 -0.470850E-05  0.212E-03    1.48       6.1  T
   5    -83.3510974 -0.263151E-06  0.473E-04    1.48      27.3  T
   6    -83.3510974 -0.111533E-07  0.180E-04    1.48      71.9  T
     SCC iter.                  ...        0 min,  0.016 sec
     gradient                   ...        0 min,  0.028 sec
 * total energy  :   -82.2785383 Eh     change       -0.4415497E-04 Eh
   gradient norm :     0.0032665 Eh/α   predicted    -0.3125719E-04 ( -29.21%)
   displ. norm   :     0.0370707 α      lambda       -0.4462944E-04
   maximum displ.:     0.0154682 α      in ANC's #17, #14, #30, ...

........................................................................
.............................. CYCLE   14 ..............................
........................................................................
   1    -83.3512814 -0.833513E+02  0.134E-02    1.48       0.0  T
   2    -83.3512812  0.187607E-06  0.818E-03    1.48       1.6  T
   3    -83.3512739  0.732687E-05  0.107E-02    1.48       1.2  T
   4    -83.3512815 -0.758729E-05  0.129E-03    1.48      10.0  T
   5    -83.3512816 -0.888983E-07  0.381E-04    1.48      33.9  T
   6    -83.3512816 -0.707038E-08  0.177E-04    1.48      72.8  T
     SCC iter.                  ...        0 min,  0.016 sec
     gradient                   ...        0 min,  0.028 sec
 * total energy  :   -82.2785699 Eh     change       -0.3160420E-04 Eh
   gradient norm :     0.0029648 Eh/α   predicted    -0.2236724E-04 ( -29.23%)
   displ. norm   :     0.0304313 α      lambda       -0.3182434E-04
   maximum displ.:     0.0124372 α      in ANC's #17, #37, #14, ...

........................................................................
.............................. CYCLE   15 ..............................
........................................................................
   1    -83.3511082 -0.833511E+02  0.118E-02    1.48       0.0  T
   2    -83.3511078  0.370307E-06  0.751E-03    1.48       1.7  T
   3    -83.3511004  0.741238E-05  0.112E-02    1.48       1.2  T
   4    -83.3511083 -0.792770E-05  0.100E-03    1.48      12.9  T
   5    -83.3511084 -0.511072E-07  0.261E-04    1.48      49.4  T
   6    -83.3511084 -0.226868E-08  0.124E-04    1.48     104.1  T
     SCC iter.                  ...        0 min,  0.016 sec
     gradient                   ...        0 min,  0.028 sec
 * total energy  :   -82.2785924 Eh     change       -0.2251211E-04 Eh
   gradient norm :     0.0021414 Eh/α   predicted    -0.1593303E-04 ( -29.22%)
   displ. norm   :     0.0258836 α      lambda       -0.2340111E-04
   maximum displ.:     0.0109763 α      in ANC's #17, #30, #29, ...

........................................................................
.............................. CYCLE   16 ..............................
........................................................................
   1    -83.3507541 -0.833508E+02  0.111E-02    1.48       0.0  T
   2    -83.3507537  0.443720E-06  0.727E-03    1.48       1.8  T
   3    -83.3507473  0.640707E-05  0.106E-02    1.48       1.2  T
   4    -83.3507543 -0.698678E-05  0.105E-03    1.48      12.3  T
   5    -83.3507543 -0.600599E-07  0.262E-04    1.48      49.2  T
   6    -83.3507543 -0.181174E-08  0.139E-04    1.48      92.7  T
     SCC iter.                  ...        0 min,  0.017 sec
     gradient                   ...        0 min,  0.028 sec
 * total energy  :   -82.2786093 Eh     change       -0.1694145E-04 Eh
   gradient norm :     0.0018091 Eh/α   predicted    -0.1171284E-04 ( -30.86%)
   displ. norm   :     0.0397869 α      lambda       -0.2081412E-04
   maximum displ.:     0.0168209 α      in ANC's #17, #29, #30, ...

........................................................................
.............................. CYCLE   17 ..............................
........................................................................
   1    -83.3501900 -0.833502E+02  0.180E-02    1.48       0.0  T
   2    -83.3501893  0.773613E-06  0.115E-02    1.48       1.1  T
   3    -83.3501726  0.166181E-04  0.166E-02    1.48       1.0  T
   4    -83.3501902 -0.175934E-04  0.152E-03    1.48       8.5  T
   5    -83.3501904 -0.133893E-06  0.378E-04    1.48      34.1  T
   6    -83.3501904 -0.355165E-08  0.211E-04    1.48      61.1  T
     SCC iter.                  ...        0 min,  0.016 sec
     gradient                   ...        0 min,  0.028 sec
 * total energy  :   -82.2786274 Eh     change       -0.1804271E-04 Eh
   gradient norm :     0.0024460 Eh/α   predicted    -0.1042123E-04 ( -42.24%)
   displ. norm   :     0.0114850 α      lambda       -0.1076425E-04
   maximum displ.:     0.0042716 α      in ANC's #29, #17, #6, ...

........................................................................
.............................. CYCLE   18 ..............................
........................................................................
   1    -83.3502024 -0.833502E+02  0.547E-03    1.48       0.0  T
   2    -83.3502024 -0.705066E-08  0.327E-03    1.48       3.9  T
   3    -83.3502023  0.836325E-07  0.108E-03    1.48      11.9  T
   4    -83.3502024 -0.752309E-07  0.460E-04    1.48      28.1  T
   5    -83.3502024 -0.121755E-07  0.158E-04    1.48      81.8  T
     SCC iter.                  ...        0 min,  0.014 sec
     gradient                   ...        0 min,  0.029 sec
 * total energy  :   -82.2786365 Eh     change       -0.9093484E-05 Eh
   gradient norm :     0.0018330 Eh/α   predicted    -0.5387737E-05 ( -40.75%)
   displ. norm   :     0.0472777 α      lambda       -0.2125803E-04
   maximum displ.:     0.0185923 α      in ANC's #29, #17, #6, ...

........................................................................
.............................. CYCLE   19 ..............................
........................................................................
   1    -83.3504336 -0.833504E+02  0.201E-02    1.48       0.0  T
   2    -83.3504337 -0.510083E-07  0.120E-02    1.48       1.1  T
   3    -83.3504293  0.431642E-05  0.795E-03    1.48       1.6  T
   4    -83.3504336 -0.423311E-05  0.205E-03    1.48       6.3  T
   5    -83.3504338 -0.244049E-06  0.498E-04    1.48      25.9  T
   6    -83.3504338 -0.108583E-07  0.214E-04    1.48      60.4  T
     SCC iter.                  ...        0 min,  0.016 sec
     gradient                   ...        0 min,  0.028 sec
 * total energy  :   -82.2786487 Eh     change       -0.1221600E-04 Eh
   gradient norm :     0.0015776 Eh/α   predicted    -0.1064931E-04 ( -12.82%)
   displ. norm   :     0.0064312 α      lambda       -0.4314833E-05
   maximum displ.:     0.0033522 α      in ANC's #1, #63, #62, ...

........................................................................
.............................. CYCLE   20 ..............................
........................................................................
   1    -83.3505354 -0.833505E+02  0.373E-03    1.48       0.0  T
   2    -83.3505354 -0.845873E-09  0.231E-03    1.48       5.6  T
   3    -83.3505352  0.194211E-06  0.174E-03    1.48       7.4  T
   4    -83.3505354 -0.193765E-06  0.485E-04    1.48      26.6  T
   5    -83.3505354 -0.145445E-07  0.129E-04    1.48     100.3  T
     SCC iter.                  ...        0 min,  0.014 sec
     gradient                   ...        0 min,  0.028 sec
 * total energy  :   -82.2786537 Eh     change       -0.5059242E-05 Eh
   gradient norm :     0.0009047 Eh/α   predicted    -0.2164733E-05 ( -57.21%)
   displ. norm   :     0.0161463 α      lambda       -0.6559454E-05
   maximum displ.:     0.0054546 α      in ANC's #28, #6, #1, ...
 * RMSD in coord.:     0.0928840 α      energy gain  -0.1767122E+00 Eh

generating ANC from model Hessian ...
Using Lindh-Hessian (1995)
 Shifting diagonal of input Hessian by    1.0271114820434749E-002
 Lowest  eigenvalues of input Hessian
    0.010000    0.000000    0.000000    0.000000    0.000000    0.000000
    0.000000    0.010353    0.010396    0.010405    0.010966    0.012003
    0.012600    0.013303    0.013557    0.013621    0.014765    0.015398
 Highest eigenvalues
    1.720161    1.888812    1.908113    1.921298    8.612466    8.690168


........................................................................
.............................. CYCLE   21 ..............................
........................................................................
   1    -83.3507780 -0.833508E+02  0.623E-03    1.48       0.0  T
   2    -83.3507780  0.415454E-09  0.379E-03    1.48       3.4  T
   3    -83.3507772  0.829456E-06  0.370E-03    1.48       3.5  T
   4    -83.3507780 -0.828763E-06  0.745E-04    1.48      17.3  T
   5    -83.3507780 -0.341236E-07  0.202E-04    1.48      63.9  T
     SCC iter.                  ...        0 min,  0.014 sec
     gradient                   ...        0 min,  0.028 sec
 * total energy  :   -82.2786605 Eh     change       -0.6786840E-05 Eh
   gradient norm :     0.0007033 Eh/α   predicted     0.0000000E+00 (-100.00%)
   displ. norm   :     0.0430811 α      lambda       -0.1237057E-04
   maximum displ.:     0.0287406 α      in ANC's #6, #8, #3, ...

........................................................................
.............................. CYCLE   22 ..............................
........................................................................
   1    -83.3507122 -0.833507E+02  0.116E-02    1.48       0.0  T
   2    -83.3507120  0.227071E-06  0.714E-03    1.48       1.8  T
   3    -83.3507055  0.647087E-05  0.104E-02    1.48       1.2  T
   4    -83.3507123 -0.677652E-05  0.448E-04    1.48      28.8  T
   5    -83.3507123 -0.102344E-07  0.217E-04    1.48      59.4  T
   6    -83.3507123 -0.113131E-08  0.133E-04    1.48      96.9  T
     SCC iter.                  ...        0 min,  0.017 sec
     gradient                   ...        0 min,  0.028 sec
 * total energy  :   -82.2786749 Eh     change       -0.1435275E-04 Eh
   gradient norm :     0.0004346 Eh/α   predicted    -0.6202832E-05 ( -56.78%)
   displ. norm   :     0.0878292 α      lambda       -0.1613814E-04
   maximum displ.:     0.0582091 α      in ANC's #6, #8, #3, ...

........................................................................
.............................. CYCLE   23 ..............................
........................................................................
   1    -83.3507361 -0.833507E+02  0.179E-02    1.48       0.0  T
   2    -83.3507354  0.697126E-06  0.112E-02    1.48       1.2  T
   3    -83.3507192  0.162038E-04  0.166E-02    1.48       1.0  T
   4    -83.3507364 -0.171159E-04  0.101E-03    1.48      12.8  T
   5    -83.3507364 -0.586987E-07  0.283E-04    1.48      45.7  T
   6    -83.3507364  0.103711E-09  0.183E-04    1.48      70.7  T
     SCC iter.                  ...        0 min,  0.017 sec
     gradient                   ...        0 min,  0.028 sec
 * total energy  :   -82.2786914 Eh     change       -0.1655998E-04 Eh
   gradient norm :     0.0005558 Eh/α   predicted    -0.8102236E-05 ( -51.07%)
   displ. norm   :     0.0673466 α      lambda       -0.7646249E-05
   maximum displ.:     0.0437118 α      in ANC's #6, #3, #8, ...

........................................................................
.............................. CYCLE   24 ..............................
........................................................................
   1    -83.3507826 -0.833508E+02  0.129E-02    1.49       0.0  T
   2    -83.3507825  0.742719E-07  0.778E-03    1.49       1.7  T
   3    -83.3507784  0.410210E-05  0.812E-03    1.48       1.6  T
   4    -83.3507826 -0.421587E-05  0.611E-04    1.49      21.1  T
   5    -83.3507827 -0.185933E-07  0.234E-04    1.49      55.2  T
   6    -83.3507827 -0.609361E-09  0.135E-04    1.49      95.5  T
     SCC iter.                  ...        0 min,  0.016 sec
     gradient                   ...        0 min,  0.028 sec
 * total energy  :   -82.2786997 Eh     change       -0.8251574E-05 Eh
   gradient norm :     0.0008238 Eh/α   predicted    -0.3831457E-05 ( -53.57%)
   displ. norm   :     0.0611134 α      lambda       -0.5308352E-05
   maximum displ.:     0.0382995 α      in ANC's #6, #3, #4, ...

........................................................................
.............................. CYCLE   25 ..............................
........................................................................
   1    -83.3507477 -0.833507E+02  0.106E-02    1.49       0.0  T
   2    -83.3507477  0.864718E-08  0.636E-03    1.49       2.0  T
   3    -83.3507461  0.156748E-05  0.512E-03    1.49       2.5  T
   4    -83.3507477 -0.157752E-05  0.832E-04    1.49      15.5  T
   5    -83.3507478 -0.445050E-07  0.233E-04    1.49      55.4  T
   6    -83.3507478 -0.141945E-08  0.122E-04    1.49     105.4  T
     SCC iter.                  ...        0 min,  0.016 sec
     gradient                   ...        0 min,  0.028 sec
 * total energy  :   -82.2787052 Eh     change       -0.5503311E-05 Eh
   gradient norm :     0.0011221 Eh/α   predicted    -0.2659119E-05 ( -51.68%)
   displ. norm   :     0.0523773 α      lambda       -0.3442017E-05
   maximum displ.:     0.0330414 α      in ANC's #3, #6, #4, ...

........................................................................
.............................. CYCLE   26 ..............................
........................................................................
   1    -83.3507923 -0.833508E+02  0.735E-03    1.49       0.0  T
   2    -83.3507923  0.616866E-07  0.452E-03    1.49       2.9  T
   3    -83.3507900  0.231801E-05  0.607E-03    1.49       2.1  T
   4    -83.3507924 -0.241439E-05  0.403E-04    1.49      32.0  T
   5    -83.3507924 -0.656125E-08  0.172E-04    1.49      75.2  T
   6    -83.3507924 -0.846313E-09  0.816E-05    1.49     158.1  T
     SCC iter.                  ...        0 min,  0.016 sec
     gradient                   ...        0 min,  0.028 sec
 * total energy  :   -82.2787086 Eh     change       -0.3425482E-05 Eh
   gradient norm :     0.0018195 Eh/α   predicted    -0.1724396E-05 ( -49.66%)
   displ. norm   :     0.0484387 α      lambda       -0.3085852E-05
   maximum displ.:     0.0313577 α      in ANC's #3, #6, #4, ...

........................................................................
.............................. CYCLE   27 ..............................
........................................................................
   1    -83.3508566 -0.833509E+02  0.607E-03    1.48       0.0  T
   2    -83.3508563  0.250560E-06  0.410E-03    1.48       3.1  T
   3    -83.3508547  0.161043E-05  0.579E-03    1.49       2.2  T
   4    -83.3508567 -0.192110E-05  0.678E-04    1.48      19.0  T
   5    -83.3508567 -0.316787E-07  0.166E-04    1.48      77.6  T
   6    -83.3508567 -0.789981E-09  0.886E-05    1.48     145.6  T
     SCC iter.                  ...        0 min,  0.016 sec
     gradient                   ...        0 min,  0.028 sec
 * total energy  :   -82.2787119 Eh     change       -0.3266945E-05 Eh
   gradient norm :     0.0012451 Eh/α   predicted    -0.1545287E-05 ( -52.70%)
   displ. norm   :     0.0484387 α      lambda        0.0000000E+00
   maximum displ.:     0.0313577 α      in ANC's #3, #6, #4, ...

........................................................................
.............................. CYCLE   28 ..............................
........................................................................
   1    -83.3509030 -0.833509E+02  0.607E-03    1.48       0.0  T
   2    -83.3509027  0.252312E-06  0.411E-03    1.48       3.1  T
   3    -83.3509011  0.158771E-05  0.577E-03    1.48       2.2  T
   4    -83.3509030 -0.189807E-05  0.718E-04    1.48      18.0  T
   5    -83.3509030 -0.358629E-07  0.166E-04    1.48      77.9  T
   6    -83.3509030 -0.743199E-09  0.905E-05    1.48     142.7  T
     SCC iter.                  ...        0 min,  0.016 sec
     gradient                   ...        0 min,  0.028 sec
 * total energy  :   -82.2787124 Eh     change       -0.5381116E-06 Eh
   gradient norm :     0.0042271 Eh/α   predicted    -0.1868533E-08 ( -99.65%)
   displ. norm   :     0.0202265 α      lambda       -0.3255836E-05
   maximum displ.:     0.0127049 α      in ANC's #3, #4, #8, ...

........................................................................
.............................. CYCLE   29 ..............................
........................................................................
   1    -83.3508814 -0.833509E+02  0.327E-03    1.48       0.0  T
   2    -83.3508814  0.111743E-08  0.197E-03    1.48       6.6  T
   3    -83.3508813  0.144904E-06  0.148E-03    1.48       8.7  T
   4    -83.3508814 -0.148327E-06  0.137E-04    1.48      94.2  T
   5    -83.3508814 -0.777078E-09  0.707E-05    1.48     182.6  T
     SCC iter.                  ...        0 min,  0.014 sec
     gradient                   ...        0 min,  0.027 sec
 * total energy  :   -82.2787152 Eh     change       -0.2751037E-05 Eh
   gradient norm :     0.0024063 Eh/α   predicted    -0.1629059E-05 ( -40.78%)
   displ. norm   :     0.0417509 α      lambda       -0.6092731E-05
   maximum displ.:     0.0243085 α      in ANC's #3, #4, #8, ...

........................................................................
.............................. CYCLE   30 ..............................
........................................................................
   1    -83.3508130 -0.833508E+02  0.732E-03    1.49       0.0  T
   2    -83.3508130  0.677872E-09  0.440E-03    1.49       2.9  T
   3    -83.3508123  0.676635E-06  0.325E-03    1.49       4.0  T
   4    -83.3508130 -0.676696E-06  0.630E-04    1.49      20.5  T
   5    -83.3508130 -0.250324E-07  0.224E-04    1.49      57.5  T
     SCC iter.                  ...        0 min,  0.014 sec
     gradient                   ...        0 min,  0.028 sec
 * total energy  :   -82.2787192 Eh     change       -0.4018603E-05 Eh
   gradient norm :     0.0012562 Eh/α   predicted    -0.3053571E-05 ( -24.01%)
   displ. norm   :     0.0513060 α      lambda       -0.2255276E-05
   maximum displ.:     0.0329215 α      in ANC's #3, #4, #8, ...

........................................................................
.............................. CYCLE   31 ..............................
........................................................................
   1    -83.3507758 -0.833508E+02  0.738E-03    1.49       0.0  T
   2    -83.3507757  0.125414E-07  0.443E-03    1.49       2.9  T
   3    -83.3507745  0.120755E-05  0.437E-03    1.49       3.0  T
   4    -83.3507758 -0.124297E-05  0.240E-04    1.49      53.9  T
   5    -83.3507758 -0.166828E-08  0.139E-04    1.49      92.7  T
   6    -83.3507758 -0.682050E-09  0.754E-05    1.49     171.2  T
     SCC iter.                  ...        0 min,  0.017 sec
     gradient                   ...        0 min,  0.028 sec
 * total energy  :   -82.2787215 Eh     change       -0.2315757E-05 Eh
   gradient norm :     0.0023665 Eh/α   predicted    -0.1133628E-05 ( -51.05%)
   displ. norm   :     0.0327199 α      lambda        0.6590901E-06
   maximum displ.:     0.0209464 α      in ANC's #3, #4, #8, ...

........................................................................
.............................. CYCLE   32 ..............................
........................................................................
   1    -83.3507373 -0.833507E+02  0.475E-03    1.49       0.0  T
   2    -83.3507373  0.668928E-08  0.285E-03    1.49       4.5  T
   3    -83.3507367  0.555765E-06  0.296E-03    1.49       4.4  T
   4    -83.3507373 -0.572540E-06  0.164E-04    1.49      78.6  T
   5    -83.3507373 -0.977366E-09  0.867E-05    1.49     149.0  T
     SCC iter.                  ...        0 min,  0.014 sec
     gradient                   ...        0 min,  0.028 sec
 * total energy  :   -82.2787218 Eh     change       -0.2839376E-06 Eh
   gradient norm :     0.0032710 Eh/α   predicted     0.3277373E-06 (-215.43%)
   displ. norm   :     0.0124066 α      lambda       -0.1750850E-05
   maximum displ.:     0.0088769 α      in ANC's #3, #4, #5, ...

........................................................................
.............................. CYCLE   33 ..............................
........................................................................
   1    -83.3507718 -0.833508E+02  0.152E-03    1.49       0.0  T
   2    -83.3507718 -0.577813E-10  0.912E-04    1.49      14.2  T
   3    -83.3507717  0.246142E-07  0.617E-04    1.49      20.9  T
     SCC iter.                  ...        0 min,  0.008 sec
     gradient                   ...        0 min,  0.028 sec
 * total energy  :   -82.2787233 Eh     change       -0.1467706E-05 Eh
   gradient norm :     0.0017113 Eh/α   predicted    -0.8761175E-06 ( -40.31%)
   displ. norm   :     0.0448321 α      lambda       -0.3970724E-05
   maximum displ.:     0.0293850 α      in ANC's #3, #4, #8, ...

........................................................................
.............................. CYCLE   34 ..............................
........................................................................
   1    -83.3508738 -0.833509E+02  0.764E-03    1.49       0.0  T
   2    -83.3508737  0.655346E-07  0.464E-03    1.49       2.8  T
   3    -83.3508715  0.225183E-05  0.605E-03    1.48       2.1  T
   4    -83.3508738 -0.233080E-05  0.596E-04    1.49      21.7  T
   5    -83.3508738 -0.224350E-07  0.142E-04    1.49      91.0  T
   6    -83.3508738 -0.555843E-09  0.763E-05    1.49     169.2  T
     SCC iter.                  ...        0 min,  0.016 sec
     gradient                   ...        0 min,  0.028 sec
 * total energy  :   -82.2787262 Eh     change       -0.2936039E-05 Eh
   gradient norm :     0.0034254 Eh/α   predicted    -0.1989758E-05 ( -32.23%)
   displ. norm   :     0.0232707 α      lambda       -0.1802002E-05
   maximum displ.:     0.0162074 α      in ANC's #3, #4, #5, ...

........................................................................
.............................. CYCLE   35 ..............................
........................................................................
   1    -83.3508486 -0.833508E+02  0.223E-03    1.49       0.0  T
   2    -83.3508486  0.622364E-08  0.136E-03    1.49       9.5  T
   3    -83.3508484  0.208368E-06  0.184E-03    1.49       7.0  T
   4    -83.3508486 -0.216676E-06  0.153E-04    1.49      84.4  T
   5    -83.3508486 -0.153547E-08  0.496E-05    1.49     260.2  T
     SCC iter.                  ...        0 min,  0.014 sec
     gradient                   ...        0 min,  0.028 sec
 * total energy  :   -82.2787279 Eh     change       -0.1671334E-05 Eh
   gradient norm :     0.0030877 Eh/α   predicted    -0.9036512E-06 ( -45.93%)
   displ. norm   :     0.0493310 α      lambda       -0.4379152E-05
   maximum displ.:     0.0331904 α      in ANC's #3, #4, #5, ...

........................................................................
.............................. CYCLE   36 ..............................
........................................................................
   1    -83.3507837 -0.833508E+02  0.478E-03    1.49       0.0  T
   2    -83.3507837  0.351617E-07  0.292E-03    1.49       4.4  T
   3    -83.3507827  0.102969E-05  0.411E-03    1.49       3.1  T
   4    -83.3507837 -0.107497E-05  0.330E-04    1.49      39.2  T
   5    -83.3507837 -0.716518E-08  0.102E-04    1.49     126.3  T
   6    -83.3507837 -0.246274E-09  0.587E-05    1.49     220.0  T
     SCC iter.                  ...        0 min,  0.016 sec
     gradient                   ...        0 min,  0.028 sec
 * total energy  :   -82.2787316 Eh     change       -0.3713418E-05 Eh
   gradient norm :     0.0011618 Eh/α   predicted    -0.2195762E-05 ( -40.87%)
   displ. norm   :     0.1214310 α      lambda       -0.5081630E-05
   maximum displ.:     0.0812881 α      in ANC's #3, #4, #5, ...

........................................................................
.............................. CYCLE   37 ..............................
........................................................................
   1    -83.3506807 -0.833507E+02  0.117E-02    1.49       0.0  T
   2    -83.3506805  0.206197E-06  0.714E-03    1.49       1.8  T
   3    -83.3506742  0.626701E-05  0.101E-02    1.49       1.3  T
   4    -83.3506808 -0.654860E-05  0.511E-04    1.49      25.3  T
   5    -83.3506808 -0.124975E-07  0.226E-04    1.49      57.1  T
   6    -83.3506808 -0.812960E-09  0.127E-04    1.49     101.3  T
     SCC iter.                  ...        0 min,  0.017 sec
     gradient                   ...        0 min,  0.028 sec
 * total energy  :   -82.2787370 Eh     change       -0.5383596E-05 Eh
   gradient norm :     0.0028151 Eh/α   predicted    -0.2559373E-05 ( -52.46%)
   displ. norm   :     0.0571675 α      lambda       -0.2579194E-05
   maximum displ.:     0.0388810 α      in ANC's #3, #4, #5, ...

........................................................................
.............................. CYCLE   38 ..............................
........................................................................
   1    -83.3507083 -0.833507E+02  0.532E-03    1.49       0.0  T
   2    -83.3507083  0.231366E-07  0.322E-03    1.49       4.0  T
   3    -83.3507073  0.978900E-06  0.394E-03    1.49       3.3  T
   4    -83.3507083 -0.101199E-05  0.233E-04    1.49      55.3  T
   5    -83.3507083 -0.221915E-08  0.996E-05    1.49     129.6  T
   6    -83.3507083 -0.408988E-10  0.533E-05    1.49     242.3  T
     SCC iter.                  ...        0 min,  0.016 sec
     gradient                   ...        0 min,  0.028 sec
 * total energy  :   -82.2787393 Eh     change       -0.2355750E-05 Eh
   gradient norm :     0.0025631 Eh/α   predicted    -0.1294498E-05 ( -45.05%)
   displ. norm   :     0.0749076 α      lambda       -0.3574509E-05
   maximum displ.:     0.0516578 α      in ANC's #3, #4, #5, ...

........................................................................
.............................. CYCLE   39 ..............................
........................................................................
   1    -83.3507869 -0.833508E+02  0.673E-03    1.49       0.0  T
   2    -83.3507869  0.955264E-08  0.404E-03    1.49       3.2  T
   3    -83.3507862  0.712942E-06  0.330E-03    1.49       3.9  T
   4    -83.3507869 -0.730712E-06  0.292E-04    1.49      44.2  T
   5    -83.3507869 -0.363775E-08  0.125E-04    1.49     103.7  T
     SCC iter.                  ...        0 min,  0.014 sec
     gradient                   ...        0 min,  0.028 sec
 * total energy  :   -82.2787424 Eh     change       -0.3121470E-05 Eh
   gradient norm :     0.0012154 Eh/α   predicted    -0.1798423E-05 ( -42.39%)
   displ. norm   :     0.1408906 α      lambda       -0.3758885E-05
   maximum displ.:     0.0981547 α      in ANC's #3, #4, #5, ...

........................................................................
.............................. CYCLE   40 ..............................
........................................................................
   1    -83.3508535 -0.833509E+02  0.122E-02    1.49       0.0  T
   2    -83.3508535 -0.104674E-07  0.732E-03    1.49       1.8  T
   3    -83.3508532  0.284394E-06  0.211E-03    1.49       6.1  T
   4    -83.3508535 -0.278288E-06  0.661E-04    1.49      19.5  T
   5    -83.3508535 -0.224381E-07  0.245E-04    1.49      52.7  T
     SCC iter.                  ...        0 min,  0.014 sec
     gradient                   ...        0 min,  0.028 sec
 * total energy  :   -82.2787468 Eh     change       -0.4318857E-05 Eh
   gradient norm :     0.0011786 Eh/α   predicted    -0.1896562E-05 ( -56.09%)
   displ. norm   :     0.1014096 α      lambda       -0.2077961E-05
   maximum displ.:     0.0712424 α      in ANC's #3, #4, #5, ...

........................................................................
.............................. CYCLE   41 ..............................
........................................................................
   1    -83.3508600 -0.833509E+02  0.865E-03    1.49       0.0  T
   2    -83.3508600 -0.336108E-08  0.519E-03    1.49       2.5  T
   3    -83.3508598  0.254899E-06  0.201E-03    1.49       6.4  T
   4    -83.3508600 -0.258283E-06  0.388E-04    1.49      33.3  T
   5    -83.3508600 -0.682664E-08  0.168E-04    1.49      76.7  T
     SCC iter.                  ...        0 min,  0.014 sec
     gradient                   ...        0 min,  0.028 sec
 * total energy  :   -82.2787495 Eh     change       -0.2696491E-05 Eh
   gradient norm :     0.0014985 Eh/α   predicted    -0.1044382E-05 ( -61.27%)
   displ. norm   :     0.1026097 α      lambda       -0.2103959E-05
   maximum displ.:     0.0720640 α      in ANC's #3, #4, #5, ...

........................................................................
.............................. CYCLE   42 ..............................
........................................................................
   1    -83.3508410 -0.833508E+02  0.891E-03    1.49       0.0  T
   2    -83.3508410  0.541228E-08  0.537E-03    1.49       2.4  T
   3    -83.3508402  0.809533E-06  0.354E-03    1.49       3.7  T
   4    -83.3508410 -0.827430E-06  0.383E-04    1.49      33.7  T
   5    -83.3508410 -0.662369E-08  0.171E-04    1.49      75.4  T
     SCC iter.                  ...        0 min,  0.014 sec
     gradient                   ...        0 min,  0.028 sec
 * total energy  :   -82.2787521 Eh     change       -0.2638309E-05 Eh
   gradient norm :     0.0008734 Eh/α   predicted    -0.1058754E-05 ( -59.87%)
   displ. norm   :     0.1131332 α      lambda       -0.1751178E-05
   maximum displ.:     0.0793869 α      in ANC's #3, #4, #22, ...

   *** GEOMETRY OPTIMIZATION CONVERGED AFTER 42 ITERATIONS ***

------------------------------------------------------------------------
 total energy gain   :        -0.1768106 Eh     -110.9503 kcal/mol
 total RMSD          :         0.1754102 a0        0.0928 Å
 total power (kW/mol):       -11.0527655 (step) -207.2498 (real)
------------------------------------------------------------------------

 ANCopt (total)                0 d,  0 h,  0 min,  2.240 sec
 optimizer setup                ...        0 min,  0.000 sec (  0.004%)
 model hessian                  ...        0 min,  0.063 sec (  2.829%)
 ANC generation                 ...        0 min,  0.005 sec (  0.243%)
 coordinate transformation      ...        0 min,  0.001 sec (  0.028%)
 single point calculation       ...        0 min,  2.156 sec ( 96.242%)
 optimization log               ...        0 min,  0.009 sec (  0.381%)
 hessian update                 ...        0 min,  0.001 sec (  0.045%)
 rational function              ...        0 min,  0.003 sec (  0.150%)

================
 final structure:
================
60
 xtb: 6.5.0 (homebrew)
C            3.63791135226938      -37.56254740308351       15.84703980054471
C            3.78693098334526      -38.09826397002873       17.26927727037668
O            3.30026656043417      -37.13087134922979       18.19757066954587
C            2.91201311412503      -39.34843380921816       17.42870961414008
C            5.26896383584271      -38.32844236797171       17.73848255636119
C            5.74201124892601      -39.77937787306734       17.68970515441411
C            6.27471363543668      -37.44685889346678       16.98653778136990
O            5.25410752380370      -37.87767683793900       19.09173260440421
B            4.13622918319882      -37.10873929601676       19.28692807203938
C            3.83771641994636      -36.34535893575305       20.59427223176833
C            4.84628650458546      -36.20911647137115       21.57689448056721
C            4.86547331101023      -35.42722265821406       22.67805890259534
H            5.75028474167890      -35.42236761543679       23.29714918676355
C            3.82188812436857      -34.36253237085020       23.01479061794531
H            4.07149241941714      -33.94577545665734       23.99314528680277
C            2.44129645909583      -34.96962627584401       23.12083585179886
B            1.71525091656928      -34.92198432326823       24.50081552706587
O            2.24894655520936      -34.34170451364404       25.61840987505941
C            1.40689019714099      -34.62860564134095       26.73344884626347
C            1.28564386149296      -33.38663842941990       27.61367854413274
C            2.09247276836124      -35.74475387484931       27.53194557721115
C            0.06725982346183      -35.09568252505917       26.05589174012101
C           -0.95349403099521      -33.96026344855515       25.90700179679485
C           -0.60925822342469      -36.29123703299203       26.72297325730634
O            0.48010695575885      -35.45717803850131       24.73824340031789
C            1.87273490144347      -35.56344492591357       22.07017868752171
C            2.46243632236872      -35.68594732905238       20.71203758660556
H            1.76843516799077      -36.19706736136092       20.04450464933150
C            2.97566491356539      -34.43958511036140       20.04640241701698
C            3.59146385669587      -33.35359225735576       20.67997916154390
C            3.89645499290338      -33.22974562916128       21.99483481573587
H            4.39134493213837      -32.33069997557109       22.33104763595893
H            2.58002270572062      -37.46033523026770       15.61778694383439
H            4.08623936857020      -38.25271492491766       15.13749347703446
H            4.10027537854759      -36.58616155940075       15.74394601707530
H            1.87589292047520      -39.06969802039769       17.25009767278865
H            2.98665525071146      -39.73156270575694       18.44341728220543
H            3.19730646884691      -40.12084652973890       16.72089369440086
H            5.67531516244289      -40.16272221167074       16.67508010991253
H            5.15554800552271      -40.40557666012712       18.35404931641888
H            6.77846361684402      -39.82237334974688       18.01500727473090
H            6.37575205022648      -37.75995305831077       15.95170101561750
H            7.24119407368610      -37.53047121657964       17.47834223831963
H            5.96665616514962      -36.40500730988553       17.02865223524903
H            5.70926583149360      -36.83959380477402       21.39078055908271
H            2.25972216179120      -33.16167016364205       28.04102384018178
H            0.58055159493802      -33.56554038069608       28.42092679338213
H            0.96519313499411      -32.52568473095321       27.03609742771209
H            3.08172657139125      -35.40119168867753       27.82580479130627
H            2.21536385281072      -36.62877443562510       26.91128704161549
H            1.52598554802143      -35.99560033595153       28.42370128933694
H           -1.34591762401029      -33.65494657133340       26.87237228009309
H           -1.77368408145497      -34.31368976196717       25.28641340307479
H           -0.49827242019128      -33.10903900950952       25.40705223601562
H           -0.85149767899249      -36.05840537670532       27.75641465772915
H            0.02533710485502      -37.17071912765823       26.68765941198765
H           -1.52831826252315      -36.51813387990745       26.18844516499875
H            0.89402159319053      -36.00538778785204       22.20166241226646
H            2.92401158820943      -34.44652852356626       18.96918086681709
H            3.82101059056826      -32.51328964382984       20.03208694738934

 Bond Distances (Angstroems)
 ---------------------------
C1-C2=1.5271         C1-H33=1.0873        C1-H34=1.0866        C1-H35=1.0852        C2-C1=1.5271         C2-O3=1.4263         
C2-C4=1.5342         C2-C5=1.5715         O3-C2=1.4263         O3-B9=1.3733         C4-C2=1.5342         C4-H36=1.0877        
C4-H37=1.0872        C4-H38=1.0858        C5-C2=1.5715         C5-C6=1.5269         C5-C7=1.5343         C5-O8=1.4264         
C6-C5=1.5269         C6-H39=1.0867        C6-H40=1.0851        C6-H41=1.0872        C7-C5=1.5343         C7-H42=1.0859        
C7-H43=1.0876        C7-H44=1.0873        O8-C5=1.4264         O8-B9=1.3708         B9-O3=1.3733         B9-O8=1.3708         
B9-C10=1.5431        C10-B9=1.5431        C10-C11=1.4147       C10-C27=1.5297       C11-C10=1.4147       C11-C12=1.3507       
C11-H45=1.0848       C12-C11=1.3507       C12-H13=1.0799       C12-C14=1.5284       H13-C12=1.0799       C14-C12=1.5284       
C14-H15=1.0923       C14-C16=1.5119       C14-C31=1.5261       H15-C14=1.0923       C16-C14=1.5119       C16-B17=1.5601       
C16-C26=1.3341       B17-C16=1.5601       B17-O18=1.3677       B17-O25=1.3669       O18-B17=1.3677       O18-C19=1.4264       
C19-O18=1.4264       C19-C20=1.5271       C19-C21=1.5341       C19-C22=1.5722       C20-C19=1.5271       C20-H46=1.0872       
C20-H47=1.0867       C20-H48=1.0851       C21-C19=1.5341       C21-H49=1.0877       C21-H50=1.0871       C21-H51=1.0858       
C22-C19=1.5722       C22-C23=1.5340       C22-C24=1.5271       C22-O25=1.4273       C23-C22=1.5340       C23-H52=1.0859       
C23-H53=1.0875       C23-H54=1.0871       C24-C22=1.5271       C24-H55=1.0867       C24-H56=1.0851       C24-H57=1.0871       
O25-B17=1.3669       O25-C22=1.4273       C26-C16=1.3341       C26-C27=1.4857       C26-H58=1.0819       C27-C10=1.5297       
C27-C26=1.4857       C27-H28=1.0902       C27-C29=1.5033       H28-C27=1.0902       C29-C27=1.5033       C29-C30=1.4000       
C29-H59=1.0785       C30-C29=1.4000       C30-C31=1.3554       C30-H60=1.0856       C31-C14=1.5261       C31-C30=1.3554       
C31-H32=1.0799       H32-C31=1.0799       H33-C1=1.0873        H34-C1=1.0866        H35-C1=1.0852        H36-C4=1.0877        
H37-C4=1.0872        H38-C4=1.0858        H39-C6=1.0867        H40-C6=1.0851        H41-C6=1.0872        H42-C7=1.0859        
H43-C7=1.0876        H44-C7=1.0873        H45-C11=1.0848       H46-C20=1.0872       H47-C20=1.0867       H48-C20=1.0851       
H49-C21=1.0877       H50-C21=1.0871       H51-C21=1.0858       H52-C23=1.0859       H53-C23=1.0875       H54-C23=1.0871       
H55-C24=1.0867       H56-C24=1.0851       H57-C24=1.0871       H58-C26=1.0819       H59-C29=1.0785       H60-C30=1.0856       
 C  H  Rav=1.0860 sigma=0.0027  Rmin=1.0785  Rmax=1.0923    32
 C  B  Rav=1.5516 sigma=0.0085  Rmin=1.5431  Rmax=1.5601     2
 C  C  Rav=1.4918 sigma=0.0715  Rmin=1.3341  Rmax=1.5722    21
 O  B  Rav=1.3697 sigma=0.0026  Rmin=1.3669  Rmax=1.3733     4
 O  C  Rav=1.4266 sigma=0.0004  Rmin=1.4263  Rmax=1.4273     4

 selected bond angles (degree)
 --------------------
H33-C1-C2=108.92               H34-C1-C2=110.19               H34-C1-H33=108.87              H35-C1-C2=111.26               
H35-C1-H33=108.06              H35-C1-H34=109.49              O3-C2-C1=109.57                C4-C2-C1=109.09                
C4-C2-O3=106.89                C5-C2-C1=114.93                C5-C2-O3=103.11                C5-C2-C4=112.79                
B9-O3-C2=108.63                H36-C4-C2=108.50               H37-C4-C2=110.18               H37-C4-H36=108.00              
H38-C4-C2=111.23               H38-C4-H36=109.00              H38-C4-H37=109.86              C6-C5-C2=114.95                
C7-C5-C2=112.81                C7-C5-C6=109.10                O8-C5-C2=103.13                O8-C5-C6=109.50                
O8-C5-C7=106.87                H39-C6-C5=110.24               H40-C6-C5=111.19               H40-C6-H39=109.57              
H41-C6-C5=108.87               H41-C6-H39=108.90              H41-C6-H40=108.01              H42-C7-C5=111.25               
H43-C7-C5=108.46               H43-C7-H42=109.03              H44-C7-C5=110.23               H44-C7-H42=109.85              
H44-C7-H43=107.93              B9-O8-C5=108.71                O8-B9-O3=111.99                C10-B9-O3=124.21               
C10-B9-O8=123.77               C11-C10-B9=119.88              C27-C10-B9=116.90              C27-C10-C11=123.09             

 selected dihedral angles (degree)
 ---------------------------------
O3-C2-C1-H33=294.32           O3-C2-C1-H34=174.96           O3-C2-C1-H35= 53.33           C4-C2-C1-H33= 51.02           
C4-C2-C1-H34=291.65           C4-C2-C1-H35=170.02           C5-C2-C1-H33=178.82           C5-C2-C1-H34= 59.45           
C5-C2-C1-H35=297.82           B9-O3-C2-C1=219.85            B9-O3-C2-C4=101.77            B9-O3-C2-C5=342.67            
H36-C4-C2-C1=299.37           H36-C4-C2-O3= 57.76           H36-C4-C2-C5=170.38           H37-C4-C2-C1=181.33           
H37-C4-C2-O3=299.72           H37-C4-C2-C5= 52.34           H38-C4-C2-C1= 59.26           H38-C4-C2-O3=177.64           
H38-C4-C2-C5=290.26           C6-C5-C2-C1=259.06            C6-C5-C2-O3=139.89            C6-C5-C2-C4= 24.97            
C7-C5-C2-C1= 25.02            C7-C5-C2-O3=265.85            C7-C5-C2-C4=150.93            O8-C5-C2-C1=139.94            
O8-C5-C2-O3= 20.77            O8-C5-C2-C4=265.85            H39-C6-C5-C2= 59.56           H39-C6-C5-C7=291.71           
H39-C6-C5-O8=175.06           H40-C6-C5-C2=297.84           H40-C6-C5-C7=169.99           H40-C6-C5-O8= 53.34           
H41-C6-C5-C2=178.96           H41-C6-C5-C7= 51.11           H41-C6-C5-O8=294.46           H42-C7-C5-C2=290.09           
H42-C7-C5-C6= 59.13           H42-C7-C5-O8=177.44           H43-C7-C5-C2=170.17           H43-C7-C5-C6=299.22           
H43-C7-C5-O8= 57.53           H44-C7-C5-C2= 52.20           H44-C7-C5-C6=181.25           H44-C7-C5-O8=299.55           
B9-O8-C5-C2=342.90            B9-O8-C5-C6=220.08            B9-O8-C5-C7=102.03            O8-B9-O3-C2=  7.57            
C10-B9-O3-C2=189.30           O3-B9-O8-C5=  7.14            C10-B9-O8-C5=185.42           C11-C10-B9-O3=189.89          
C11-C10-B9-O8= 11.82          C27-C10-B9-O3=  5.88          C27-C10-B9-O8=187.81          
           -------------------------------------------------
          |                Final Singlepoint                |
           -------------------------------------------------

          ...................................................
          :                      SETUP                      :
          :.................................................:
          :  # basis functions                 144          :
          :  # atomic orbitals                 144          :
          :  # shells                           88          :
          :  # electrons                       150          :
          :  max. iterations                   250          :
          :  Hamiltonian                  GFN2-xTB          :
          :  restarted?                      false          :
          :  GBSA solvation                  false          :
          :  PC potential                    false          :
          :  electronic temp.          300.0000000     K    :
          :  accuracy                    1.0000000          :
          :  -> integral cutoff          0.2500000E+02      :
          :  -> integral neglect         0.1000000E-07      :
          :  -> SCF convergence          0.1000000E-05 Eh   :
          :  -> wf. convergence          0.1000000E-03 e    :
          :  Broyden damping             0.4000000          :
          ...................................................

 iter      E             dE          RMSdq      gap      omega  full diag
   1    -83.3508410 -0.833508E+02  0.831E-05    1.49       0.0  T
   2    -83.3508410  0.142009E-09  0.765E-05    1.49     168.7  T
   3    -83.3508410 -0.212367E-09  0.509E-05    1.49     253.6  T

   *** convergence criteria satisfied after 3 iterations ***

         #    Occupation            Energy/Eh            Energy/eV
      -------------------------------------------------------------
         1        2.0000           -0.6875810             -18.7100
       ...           ...                  ...                  ...
        69        2.0000           -0.4004000             -10.8954
        70        2.0000           -0.3972402             -10.8095
        71        2.0000           -0.3968380             -10.7985
        72        2.0000           -0.3961608             -10.7801
        73        2.0000           -0.3907116             -10.6318
        74        2.0000           -0.3660927              -9.9619
        75        2.0000           -0.3262096              -8.8766 (HOMO)
        76                         -0.2715621              -7.3896 (LUMO)
        77                         -0.2189109              -5.9569
        78                         -0.1820191              -4.9530
        79                         -0.1489407              -4.0529
        80                         -0.0944309              -2.5696
       ...                                ...                  ...
       144                          0.6745932              18.3566
      -------------------------------------------------------------
                  HL-Gap            0.0546475 Eh            1.4870 eV
             Fermi-level           -0.2988858 Eh           -8.1331 eV

 SCC (total)                   0 d,  0 h,  0 min,  0.043 sec
 SCC setup                      ...        0 min,  0.000 sec (  0.529%)
 Dispersion                     ...        0 min,  0.000 sec (  0.896%)
 classical contributions        ...        0 min,  0.000 sec (  0.397%)
 integral evaluation            ...        0 min,  0.006 sec ( 14.032%)
 iterations                     ...        0 min,  0.009 sec ( 19.683%)
 molecular gradient             ...        0 min,  0.028 sec ( 63.681%)
 printout                       ...        0 min,  0.000 sec (  0.769%)

         :::::::::::::::::::::::::::::::::::::::::::::::::::::
         ::                     SUMMARY                     ::
         :::::::::::::::::::::::::::::::::::::::::::::::::::::
         :: total energy             -82.278752093918 Eh    ::
         :: gradient norm              0.000874694925 Eh/a0 ::
         :: HOMO-LUMO gap              1.487033323137 eV    ::
         ::.................................................::
         :: SCC energy               -83.350841045147 Eh    ::
         :: -> isotropic ES            0.147955632116 Eh    ::
         :: -> anisotropic ES          0.012167951651 Eh    ::
         :: -> anisotropic XC          0.027687616274 Eh    ::
         :: -> dispersion             -0.062714908359 Eh    ::
         :: repulsion energy           1.071162030372 Eh    ::
         :: add. restraining           0.000209233721 Eh    ::
         :: total charge              -0.000000000000 e     ::
         :::::::::::::::::::::::::::::::::::::::::::::::::::::

           -------------------------------------------------
          |                Property Printout                |
           -------------------------------------------------

    * Orbital Energies and Occupations

         #    Occupation            Energy/Eh            Energy/eV
      -------------------------------------------------------------
         1        2.0000           -0.6875810             -18.7100
       ...           ...                  ...                  ...
        63        2.0000           -0.4356859             -11.8556
        64        2.0000           -0.4313470             -11.7375
        65        2.0000           -0.4223959             -11.4940
        66        2.0000           -0.4202396             -11.4353
        67        2.0000           -0.4173591             -11.3569
        68        2.0000           -0.4156570             -11.3106
        69        2.0000           -0.4004000             -10.8954
        70        2.0000           -0.3972402             -10.8095
        71        2.0000           -0.3968380             -10.7985
        72        2.0000           -0.3961608             -10.7801
        73        2.0000           -0.3907116             -10.6318
        74        2.0000           -0.3660927              -9.9619
        75        2.0000           -0.3262096              -8.8766 (HOMO)
        76                         -0.2715621              -7.3896 (LUMO)
        77                         -0.2189109              -5.9569
        78                         -0.1820191              -4.9530
        79                         -0.1489407              -4.0529
        80                         -0.0944309              -2.5696
        81                         -0.0877765              -2.3885
        82                          0.0100169               0.2726
        83                          0.0122879               0.3344
        84                          0.0288836               0.7860
        85                          0.0297299               0.8090
        86                          0.0573835               1.5615
       ...                                ...                  ...
       144                          0.6745932              18.3566
      -------------------------------------------------------------
                  HL-Gap            0.0546475 Eh            1.4870 eV
             Fermi-level           -0.2988858 Eh           -8.1331 eV

     #   Z          covCN         q      C6AA      α(0)
     1   6 C        3.755    -0.116    22.785     6.806
     2   6 C        3.858     0.130    18.437     6.107
     3   8 O        1.638    -0.380    20.477     6.108
     4   6 C        3.755    -0.116    22.772     6.804
     5   6 C        3.859     0.130    18.440     6.107
     6   6 C        3.755    -0.117    22.799     6.808
     7   6 C        3.755    -0.115    22.758     6.802
     8   8 O        1.638    -0.375    20.389     6.095
     9   5 B        2.658     0.430    15.585     6.648
    10   6 C        3.053    -0.076    29.831     8.957
    11   6 C        2.890    -0.036    28.895     8.813
    12   6 C        2.893    -0.039    28.977     8.826
    13   1 H        0.926     0.027     2.631     2.536
    14   6 C        3.860    -0.018    20.859     6.495
    15   1 H        0.924     0.045     2.379     2.412
    16   6 C        2.867    -0.080    29.993     8.977
    17   5 B        2.660     0.431    15.567     6.642
    18   8 O        1.638    -0.370    20.276     6.078
    19   6 C        3.859     0.129    18.459     6.110
    20   6 C        3.755    -0.117    22.797     6.808
    21   6 C        3.755    -0.116    22.777     6.805
    22   6 C        3.860     0.129    18.456     6.110
    23   6 C        3.755    -0.116    22.783     6.806
    24   6 C        3.755    -0.117    22.805     6.809
    25   8 O        1.638    -0.371    20.300     6.082
    26   6 C        2.896    -0.028    28.701     8.784
    27   6 C        3.859    -0.005    20.630     6.459
    28   1 H        0.925     0.048     2.347     2.396
    29   6 C        3.081    -0.020    28.423     8.740
    30   6 C        2.888    -0.034    28.842     8.805
    31   6 C        2.894    -0.034    28.834     8.804
    32   1 H        0.926     0.029     2.600     2.522
    33   1 H        0.925     0.054     2.276     2.359
    34   1 H        0.925     0.039     2.461     2.453
    35   1 H        0.925     0.051     2.312     2.378
    36   1 H        0.925     0.051     2.304     2.374
    37   1 H        0.925     0.043     2.404     2.425
    38   1 H        0.925     0.042     2.424     2.435
    39   1 H        0.925     0.039     2.459     2.452
    40   1 H        0.925     0.052     2.295     2.369
    41   1 H        0.925     0.054     2.271     2.357
    42   1 H        0.925     0.042     2.422     2.434
    43   1 H        0.925     0.052     2.301     2.372
    44   1 H        0.925     0.042     2.421     2.433
    45   1 H        0.925     0.037     2.495     2.470
    46   1 H        0.925     0.054     2.269     2.355
    47   1 H        0.925     0.039     2.456     2.451
    48   1 H        0.925     0.052     2.298     2.371
    49   1 H        0.925     0.052     2.294     2.369
    50   1 H        0.925     0.044     2.399     2.422
    51   1 H        0.925     0.042     2.420     2.433
    52   1 H        0.925     0.043     2.415     2.430
    53   1 H        0.925     0.052     2.292     2.367
    54   1 H        0.925     0.044     2.401     2.423
    55   1 H        0.925     0.040     2.452     2.449
    56   1 H        0.925     0.052     2.294     2.368
    57   1 H        0.925     0.054     2.266     2.354
    58   1 H        0.925     0.037     2.489     2.467
    59   1 H        0.926     0.039     2.457     2.451
    60   1 H        0.925     0.027     2.625     2.534

 Mol. C6AA /au·bohr⁶  :      33345.307466
 Mol. C8AA /au·bohr⁸  :     773681.927945
 Mol. α(0) /au        :        277.616087


Wiberg/Mayer (AO) data.
largest (>0.10) Wiberg bond orders for each atom

 ---------------------------------------------------------------------------
     #   Z sym  total        # sym  WBO       # sym  WBO       # sym  WBO
 ---------------------------------------------------------------------------
     1   6 C    3.994 --     2 C    0.997    34 H    0.985    33 H    0.983
                            35 H    0.982
     2   6 C    3.944 --     1 C    0.997     4 C    0.990     3 O    0.955
                             5 C    0.937
     3   8 O    2.213 --     9 B    1.108     2 C    0.955
     4   6 C    3.994 --     2 C    0.990    38 H    0.984    37 H    0.984
                            36 H    0.983
     5   6 C    3.943 --     6 C    0.997     7 C    0.990     8 O    0.954
                             2 C    0.937
     6   6 C    3.994 --     5 C    0.997    39 H    0.985    41 H    0.983
                            40 H    0.982
     7   6 C    3.994 --     5 C    0.990    42 H    0.985    44 H    0.984
                            43 H    0.983
     8   8 O    2.220 --     9 B    1.115     5 C    0.954
     9   5 B    3.391 --     8 O    1.115     3 O    1.108    10 C    1.034
    10   6 C    3.916 --    11 C    1.275     9 B    1.034    27 C    0.925
                            29 C    0.409    31 C    0.148
    11   6 C    3.991 --    12 C    1.676    10 C    1.275    45 H    0.958
    12   6 C    3.977 --    11 C    1.676    14 C    0.975    13 H    0.971
                            29 C    0.131    31 C    0.126
    13   1 H    0.999 --    12 C    0.971
    14   6 C    3.994 --    16 C    0.985    31 C    0.981    12 C    0.975
                            15 H    0.972
    15   1 H    0.998 --    14 C    0.972
    16   6 C    3.976 --    26 C    1.845    17 B    0.998    14 C    0.985
    17   5 B    3.375 --    25 O    1.131    18 O    1.130    16 C    0.998
    18   8 O    2.236 --    17 B    1.130    19 C    0.953
    19   6 C    3.943 --    20 C    0.997    21 C    0.991    18 O    0.953
                            22 C    0.936
    20   6 C    3.994 --    19 C    0.997    47 H    0.985    46 H    0.983
                            48 H    0.982
    21   6 C    3.994 --    19 C    0.991    51 H    0.984    50 H    0.984
                            49 H    0.983
    22   6 C    3.942 --    24 C    0.996    23 C    0.991    25 O    0.953
                            19 C    0.936
    23   6 C    3.995 --    22 C    0.991    52 H    0.984    54 H    0.984
                            53 H    0.983
    24   6 C    3.994 --    22 C    0.996    55 H    0.985    57 H    0.983
                            56 H    0.982
    25   8 O    2.235 --    17 B    1.131    22 C    0.953
    26   6 C    3.987 --    16 C    1.845    27 C    1.027    58 H    0.966
    27   6 C    3.989 --    26 C    1.027    29 C    0.975    28 H    0.967
                            10 C    0.925
    28   1 H    0.998 --    27 C    0.967
    29   6 C    3.936 --    30 C    1.327    27 C    0.975    59 H    0.973
                            10 C    0.409    12 C    0.131
    30   6 C    3.992 --    31 C    1.637    29 C    1.327    60 H    0.961
    31   6 C    3.964 --    30 C    1.637    14 C    0.981    32 H    0.972
                            10 C    0.148    12 C    0.126
    32   1 H    0.999 --    31 C    0.972
    33   1 H    0.997 --     1 C    0.983
    34   1 H    0.998 --     1 C    0.985
    35   1 H    0.997 --     1 C    0.982
    36   1 H    0.997 --     4 C    0.983
    37   1 H    0.998 --     4 C    0.984
    38   1 H    0.998 --     4 C    0.984
    39   1 H    0.998 --     6 C    0.985
    40   1 H    0.997 --     6 C    0.982
    41   1 H    0.997 --     6 C    0.983
    42   1 H    0.998 --     7 C    0.985
    43   1 H    0.997 --     7 C    0.983
    44   1 H    0.998 --     7 C    0.984
    45   1 H    0.998 --    11 C    0.958
    46   1 H    0.997 --    20 C    0.983
    47   1 H    0.998 --    20 C    0.985
    48   1 H    0.997 --    20 C    0.982
    49   1 H    0.997 --    21 C    0.983
    50   1 H    0.998 --    21 C    0.984
    51   1 H    0.998 --    21 C    0.984
    52   1 H    0.998 --    23 C    0.984
    53   1 H    0.997 --    23 C    0.983
    54   1 H    0.998 --    23 C    0.984
    55   1 H    0.998 --    24 C    0.985
    56   1 H    0.997 --    24 C    0.982
    57   1 H    0.997 --    24 C    0.983
    58   1 H    0.998 --    26 C    0.966
    59   1 H    0.998 --    29 C    0.973
    60   1 H    0.999 --    30 C    0.961
 ---------------------------------------------------------------------------

Topologies differ in total number of bonds
Writing topology from bond orders to xtbtopo.mol

molecular dipole:
                 x           y           z       tot (Debye)
 q only:       -0.300      -0.249       0.020
   full:       -0.158      -0.291      -0.121       0.896
molecular quadrupole (traceless):
                xx          xy          yy          xz          yz          zz
 q only:      -30.683      25.602      27.121     -30.809      -8.261       3.562
  q+dip:      -27.310      12.283      35.628     -23.539       5.699      -8.318
   full:      -27.420      11.332      36.969     -24.895       4.282      -9.548

           -------------------------------------------------
          |                Geometry Summary                 |
           -------------------------------------------------

      molecular mass/u    :      382.1099696
   center of mass at/Å    :        2.9350032     -35.9672286      21.8420671
  moments of inertia/u·Å² :        0.1139776E+04   0.6991719E+04   0.7192531E+04
rotational constants/cm⁻¹ :        0.1479031E-01   0.2411086E-02   0.2343769E-02

 * 56 selected distances

     #   Z          #   Z                                           value/Å
     1   6 C        2   6 C                                       1.5270753
     2   6 C        3   8 O                                       1.4263309
     2   6 C        4   6 C                                       1.5342180
     5   6 C        6   6 C                                       1.5268816
     5   6 C        7   6 C                                       1.5343218
     5   6 C        8   8 O                                       1.4264278
     3   8 O        9   5 B                                       1.3733256
     8   8 O        9   5 B                                       1.3707730
     9   5 B       10   6 C                                       1.5430517
    10   6 C       11   6 C                                       1.4146811
    11   6 C       12   6 C                                       1.3506626
    12   6 C       13   1 H                                       1.0799018
    14   6 C       15   1 H                                       1.0923217
    16   6 C       17   5 B                                       1.5600501 (max)
    17   5 B       18   8 O                                       1.3676890
    18   8 O       19   6 C                                       1.4264233
    19   6 C       20   6 C                                       1.5270848
    19   6 C       21   6 C                                       1.5340821
    22   6 C       23   6 C                                       1.5340416
    22   6 C       24   6 C                                       1.5270971
    17   5 B       25   8 O                                       1.3668889
    22   6 C       25   8 O                                       1.4273469
    16   6 C       26   6 C                                       1.3340778
    26   6 C       27   6 C                                       1.4856993
    27   6 C       28   1 H                                       1.0901751
    29   6 C       30   6 C                                       1.4000031
    30   6 C       31   6 C                                       1.3554347
    31   6 C       32   1 H                                       1.0799252
     1   6 C       33   1 H                                       1.0872593
     1   6 C       34   1 H                                       1.0866395
     1   6 C       35   1 H                                       1.0852365
     4   6 C       36   1 H                                       1.0877229
     4   6 C       37   1 H                                       1.0871941
     4   6 C       38   1 H                                       1.0858256
     6   6 C       39   1 H                                       1.0866763
     6   6 C       40   1 H                                       1.0850887
     6   6 C       41   1 H                                       1.0871540
     7   6 C       42   1 H                                       1.0858748
     7   6 C       43   1 H                                       1.0876338
     7   6 C       44   1 H                                       1.0872571
    11   6 C       45   1 H                                       1.0848381
    20   6 C       46   1 H                                       1.0872274
    20   6 C       47   1 H                                       1.0866513
    20   6 C       48   1 H                                       1.0851406
    21   6 C       49   1 H                                       1.0876633
    21   6 C       50   1 H                                       1.0871117
    21   6 C       51   1 H                                       1.0858454
    23   6 C       52   1 H                                       1.0858891
    23   6 C       53   1 H                                       1.0875440
    23   6 C       54   1 H                                       1.0870876
    24   6 C       55   1 H                                       1.0866885
    24   6 C       56   1 H                                       1.0851024
    24   6 C       57   1 H                                       1.0871403
    26   6 C       58   1 H                                       1.0818879
    29   6 C       59   1 H                                       1.0784817 (min)
    30   6 C       60   1 H                                       1.0856172

 * 5 distinct bonds (by element types)

   Z      Z             #   av. dist./Å        max./Å        min./Å
   1 H    6 C          32     1.0859938     1.0923217     1.0784817
   5 B    6 C           2     1.5515509     1.5600501     1.5430517
   6 C    6 C          14     1.4703829     1.5343218     1.3340778
   5 B    8 O           4     1.3696691     1.3733256     1.3668889
   6 C    8 O           4     1.4266322     1.4273469     1.4263309


optimized geometry written to: xtbopt.xyz


           -------------------------------------------------
          | TOTAL ENERGY              -82.278752093918 Eh   |
          | GRADIENT NORM               0.000874694925 Eh/α |
          | HOMO-LUMO GAP               1.487033323137 eV   |
           -------------------------------------------------

------------------------------------------------------------------------
 * finished run on 2022/07/09 at 18:33:34.653     
------------------------------------------------------------------------
 total:
 * wall-time:     0 d,  0 h,  0 min,  2.370 sec
 *  cpu-time:     0 d,  0 h,  0 min,  2.366 sec
 * ratio c/w:     0.999 speedup
 SCF:
 * wall-time:     0 d,  0 h,  0 min,  0.072 sec
 *  cpu-time:     0 d,  0 h,  0 min,  0.072 sec
 * ratio c/w:     0.998 speedup
 ANC optimizer:
 * wall-time:     0 d,  0 h,  0 min,  2.285 sec
 *  cpu-time:     0 d,  0 h,  0 min,  2.281 sec
 * ratio c/w:     0.999 speedup

