      -----------------------------------------------------------      
     |                   =====================                   |     
     |                           x T B                           |     
     |                   =====================                   |     
     |                         S. Grimme                         |     
     |          Mulliken Center for Theoretical Chemistry        |     
     |                    University of Bonn                     |     
      -----------------------------------------------------------      

   * xtb version 6.5.0 (homebrew) compiled by 'nhattrup@GPGGRP-SHANNON.CHEME.CMU.EDU' on 

   xtb is free software: you can redistribute it and/or modify it under
   the terms of the GNU Lesser General Public License as published by
   the Free Software Foundation, either version 3 of the License, or
   (at your option) any later version.
   
   xtb is distributed in the hope that it will be useful,
   but WITHOUT ANY WARRANTY; without even the implied warranty of
   MERCHANTABILITY or FITNESS FOR A PARTICULAR PURPOSE.  See the
   GNU Lesser General Public License for more details.
   
   Cite this work as:
   * C. Bannwarth, E. Caldeweyher, S. Ehlert, A. Hansen, P. Pracht,
     J. Seibert, S. Spicher, S. Grimme, WIREs Comput. Mol. Sci., 2020, 11,
     e01493. DOI: 10.1002/wcms.1493
   
   for GFN2-xTB:
   * C. Bannwarth, S. Ehlert and S. Grimme., J. Chem. Theory Comput., 2019,
     15, 1652-1671. DOI: 10.1021/acs.jctc.8b01176
   for GFN1-xTB:
   * S. Grimme, C. Bannwarth, P. Shushkov, J. Chem. Theory Comput., 2017,
     13, 1989-2009. DOI: 10.1021/acs.jctc.7b00118
   for GFN0-xTB:
   * P. Pracht, E. Caldeweyher, S. Ehlert, S. Grimme, ChemRxiv, 2019, preprint.
     DOI: 10.26434/chemrxiv.8326202.v1
   for GFN-FF:
   * S. Spicher and S. Grimme, Angew. Chem. Int. Ed., 2020, 59, 15665-15673.
     DOI: 10.1002/anie.202004239
   
   for ALPB and GBSA implicit solvation:
   * S. Ehlert, M. Stahn, S. Spicher, S. Grimme, J. Chem. Theory Comput.,
     2021, 17, 4250-4261. DOI: 10.1021/acs.jctc.1c00471
   
   for DFT-D4:
   * E. Caldeweyher, C. Bannwarth and S. Grimme, J. Chem. Phys., 2017,
     147, 034112. DOI: 10.1063/1.4993215
   * E. Caldeweyher, S. Ehlert, A. Hansen, H. Neugebauer, S. Spicher,
     C. Bannwarth and S. Grimme, J. Chem. Phys., 2019, 150, 154122.
     DOI: 10.1063/1.5090222
   * E. Caldeweyher, J.-M. Mewes, S. Ehlert and S. Grimme, Phys. Chem. Chem. Phys.
     2020, 22, 8499-8512. DOI: 10.1039/D0CP00502A
   
   for sTDA-xTB:
   * S. Grimme and C. Bannwarth, J. Chem. Phys., 2016, 145, 054103.
     DOI: 10.1063/1.4959605
   
   in the mass-spec context:
   * V. Asgeirsson, C. Bauer and S. Grimme, Chem. Sci., 2017, 8, 4879.
     DOI: 10.1039/c7sc00601b
   * J. Koopman and S. Grimme, ACS Omega 2019, 4, 12, 15120-15133.
     DOI: 10.1021/acsomega.9b02011
   
   for metadynamics refer to:
   * S. Grimme, J. Chem. Theory Comput., 2019, 155, 2847-2862
     DOI: 10.1021/acs.jctc.9b00143
   
   for SPH calculations refer to:
   * S. Spicher and S. Grimme, J. Chem. Theory Comput., 2021, 17, 1701-1714
     DOI: 10.1021/acs.jctc.0c01306
   
   with help from (in alphabetical order)
   P. Atkinson, C. Bannwarth, F. Bohle, G. Brandenburg, E. Caldeweyher
   M. Checinski, S. Dohm, S. Ehlert, S. Ehrlich, I. Gerasimov, C. Hölzer
   A. Katbashev, J. Koopman, C. Lavigne, S. Lehtola, F. März, M. Müller,
   F. Musil, H. Neugebauer, J. Pisarek, C. Plett, P. Pracht, F. Pultar,
   J. Seibert, P. Shushkov, S. Spicher, M. Stahn, M. Steiner, T. Strunk,
   J. Stückrath, T. Rose, and J. Unsleber
   
 * started run on 2022/07/09 at 18:32:59.387     

           -------------------------------------------------
          |                Calculation Setup                |
           -------------------------------------------------

          program call               : /opt/homebrew/bin/xtb bvl_bpin2_scan_3-1_xtb.xyz --chrg 0 --uhf 0 --opt --input xcontrol_bvl_bpin2_scan_3-1_xtb
          coordinate file            : bvl_bpin2_scan_3-1_xtb.xyz
          omp threads                :                     1

   ID    Z sym.   atoms
    1    6 C      1, 2, 4-7, 10-12, 14, 16, 19-24, 26, 27, 29-31
    2    8 O      3, 8, 18, 25
    3    5 B      9, 17
    4    1 H      13, 15, 28, 32-60
constraining bond 12 31 to    1.8333000 Å, actual value:    1.7159181 Å
constraining bond 10 29 to    2.3889000 Å, actual value:    2.4989870 Å

           -------------------------------------------------
          |                 G F N 2 - x T B                 |
           -------------------------------------------------

        Reference                      10.1021/acs.jctc.8b01176
      * Hamiltonian:
        H0-scaling (s, p, d)           1.850000    2.230000    2.230000
        zeta-weighting                 0.500000
      * Dispersion:
        s8                             2.700000
        a1                             0.520000
        a2                             5.000000
        s9                             5.000000
      * Repulsion:
        kExp                           1.500000    1.000000
        rExp                           1.000000
      * Coulomb:
        alpha                          2.000000
        third order                    shell-resolved
        anisotropic                    true
        a3                             3.000000
        a5                             4.000000
        cn-shift                       1.200000
        cn-exp                         4.000000
        max-rad                        5.000000


          ...................................................
          :                      SETUP                      :
          :.................................................:
          :  # basis functions                 144          :
          :  # atomic orbitals                 144          :
          :  # shells                           88          :
          :  # electrons                       150          :
          :  max. iterations                   250          :
          :  Hamiltonian                  GFN2-xTB          :
          :  restarted?                      false          :
          :  GBSA solvation                  false          :
          :  PC potential                    false          :
          :  electronic temp.          300.0000000     K    :
          :  accuracy                    1.0000000          :
          :  -> integral cutoff          0.2500000E+02      :
          :  -> integral neglect         0.1000000E-07      :
          :  -> SCF convergence          0.1000000E-05 Eh   :
          :  -> wf. convergence          0.1000000E-03 e    :
          :  Broyden damping             0.4000000          :
          ...................................................

 iter      E             dE          RMSdq      gap      omega  full diag
   1    -82.9583711 -0.829584E+02  0.468E+00    3.20       0.0  T
   2    -83.3380363 -0.379665E+00  0.288E+00    2.93       1.0  T
   3    -83.3502132 -0.121769E-01  0.138E+00    3.15       1.0  T
   4    -83.3711655 -0.209523E-01  0.470E-01    3.09       1.0  T
   5    -83.3837735 -0.126081E-01  0.203E-01    3.11       1.0  T
   6    -83.3851130 -0.133943E-02  0.116E-01    3.12       1.0  T
   7    -83.3853558 -0.242835E-03  0.324E-02    3.11       1.0  T
   8    -83.3853857 -0.299416E-04  0.120E-02    3.12       1.1  T
   9    -83.3853894 -0.369819E-05  0.541E-03    3.12       2.4  T
  10    -83.3853900 -0.592612E-06  0.260E-03    3.12       5.0  T
  11    -83.3853902 -0.137431E-06  0.728E-04    3.12      17.7  T
  12    -83.3853902 -0.241004E-07  0.314E-04    3.12      41.1  T

   *** convergence criteria satisfied after 12 iterations ***

         #    Occupation            Energy/Eh            Energy/eV
      -------------------------------------------------------------
         1        2.0000           -0.6883327             -18.7305
       ...           ...                  ...                  ...
        69        2.0000           -0.4054516             -11.0329
        70        2.0000           -0.3979881             -10.8298
        71        2.0000           -0.3954043             -10.7595
        72        2.0000           -0.3948365             -10.7440
        73        2.0000           -0.3900297             -10.6132
        74        2.0000           -0.3580156              -9.7421
        75        2.0000           -0.3412957              -9.2871 (HOMO)
        76                         -0.2268063              -6.1717 (LUMO)
        77                         -0.2169174              -5.9026
        78                         -0.1900825              -5.1724
        79                         -0.1038864              -2.8269
        80                         -0.0970650              -2.6413
       ...                                ...                  ...
       144                          0.6734756              18.3262
      -------------------------------------------------------------
                  HL-Gap            0.1144895 Eh            3.1154 eV
             Fermi-level           -0.2840510 Eh           -7.7294 eV

 SCC (total)                   0 d,  0 h,  0 min,  0.068 sec
 SCC setup                      ...        0 min,  0.000 sec (  0.428%)
 Dispersion                     ...        0 min,  0.000 sec (  0.659%)
 classical contributions        ...        0 min,  0.000 sec (  0.273%)
 integral evaluation            ...        0 min,  0.006 sec (  9.133%)
 iterations                     ...        0 min,  0.033 sec ( 48.668%)
 molecular gradient             ...        0 min,  0.028 sec ( 40.338%)
 printout                       ...        0 min,  0.000 sec (  0.491%)

         :::::::::::::::::::::::::::::::::::::::::::::::::::::
         ::                     SUMMARY                     ::
         :::::::::::::::::::::::::::::::::::::::::::::::::::::
         :: total energy             -82.126509290766 Eh    ::
         :: gradient norm              1.679593639769 Eh/a0 ::
         :: HOMO-LUMO gap              3.115416617571 eV    ::
         ::.................................................::
         :: SCC energy               -83.385390191030 Eh    ::
         :: -> isotropic ES            0.147415797396 Eh    ::
         :: -> anisotropic ES          0.012634949752 Eh    ::
         :: -> anisotropic XC          0.026942435068 Eh    ::
         :: -> dispersion             -0.061089418749 Eh    ::
         :: repulsion energy           1.073111754182 Eh    ::
         :: add. restraining           0.184964346966 Eh    ::
         :: total charge              -0.000000000000 e     ::
         :::::::::::::::::::::::::::::::::::::::::::::::::::::

      ----------------------------------------------------------- 
     |                   =====================                   |
     |                        A N C O P T                        |
     |                   =====================                   |
     |               Approximate Normal Coordinate               |
     |                Rational Function Optimizer                |
      ----------------------------------------------------------- 

          ...................................................
          :                      SETUP                      :
          :.................................................:
          :   optimization level            normal          :
          :   max. optcycles                   200          :
          :   ANC micro-cycles                  20          :
          :   degrees of freedom               174          :
          :.................................................:
          :   RF solver                   davidson          :
          :   write xtbopt.log                true          :
          :   linear?                        false          :
          :   energy convergence         0.5000000E-05 Eh   :
          :   grad. convergence          0.1000000E-02 Eh/α :
          :   maximium RF displ.         1.0000000          :
          :   Hlow (freq-cutoff)         0.1000000E-01      :
          :   Hmax (freq-cutoff)         5.0000000          :
          :   S6 in model hess.         20.0000000          :
          ...................................................

generating ANC from model Hessian ...
Using Lindh-Hessian (1995)
 Shifting diagonal of input Hessian by   0.24813569714460701     
 Lowest  eigenvalues of input Hessian
    0.010000    0.141817    0.000000    0.000000    0.000000    0.000000
    0.000000    0.000000    0.248224    0.248273    0.248375    0.249639
    0.250074    0.250697    0.251409    0.251491    0.252892    0.253273
 Highest eigenvalues
    1.958560    2.128251    2.140841    2.292157    8.965918    9.212100


........................................................................
.............................. CYCLE    1 ..............................
........................................................................
   1    -83.3853902 -0.833854E+02  0.167E-04    3.12       0.0  T
   2    -83.3853902 -0.172926E-08  0.953E-05    3.12     135.5  T
   3    -83.3853902 -0.535564E-09  0.338E-05    3.12     381.9  T
     SCC iter.                  ...        0 min,  0.009 sec
     gradient                   ...        0 min,  0.027 sec
 * total energy  :   -82.1265093 Eh     change       -0.1210182E-08 Eh
   gradient norm :     1.6795930 Eh/α   predicted     0.0000000E+00 (-100.00%)
   displ. norm   :     0.3111210 α      lambda       -0.5157955E+00
   maximum displ.:     0.2394949 α      in ANC's #174, #173, #127, ...

........................................................................
.............................. CYCLE    2 ..............................
........................................................................
   1    -83.3642936 -0.833643E+02  0.322E-01    2.64       0.0  T
   2    -83.3642770  0.165537E-04  0.224E-01    2.65       1.0  T
   3    -83.3636460  0.631037E-03  0.157E-01    2.66       1.0  T
   4    -83.3648737 -0.122770E-02  0.267E-02    2.65       1.0  T
   5    -83.3649105 -0.367704E-04  0.755E-03    2.66       1.7  T
   6    -83.3649125 -0.202455E-05  0.350E-03    2.66       3.7  T
   7    -83.3649126 -0.956057E-07  0.112E-03    2.66      11.6  T
   8    -83.3649127 -0.495952E-07  0.371E-04    2.66      34.8  T
   9    -83.3649127 -0.268362E-08  0.216E-04    2.66      59.9  T
     SCC iter.                  ...        0 min,  0.025 sec
     gradient                   ...        0 min,  0.028 sec
 * total energy  :   -82.2538521 Eh     change       -0.1273428E+00 Eh
   gradient norm :     0.8596493 Eh/α   predicted    -0.2830529E+00 ( 122.28%)
   displ. norm   :     0.1068146 α      lambda       -0.8838844E-01
   maximum displ.:     0.0832703 α      in ANC's #174, #173, #116, ...

........................................................................
.............................. CYCLE    3 ..............................
........................................................................
   1    -83.3739665 -0.833740E+02  0.112E-01    2.83       0.0  T
   2    -83.3739692 -0.267723E-05  0.850E-02    2.83       1.0  T
   3    -83.3740294 -0.601754E-04  0.525E-02    2.83       1.0  T
   4    -83.3741052 -0.758050E-04  0.120E-02    2.83       1.1  T
   5    -83.3741120 -0.679306E-05  0.336E-03    2.83       3.8  T
   6    -83.3741125 -0.502119E-06  0.134E-03    2.83       9.7  T
   7    -83.3741125 -0.153510E-07  0.388E-04    2.83      33.3  T
   8    -83.3741125 -0.591447E-08  0.117E-04    2.83     110.8  T
     SCC iter.                  ...        0 min,  0.022 sec
     gradient                   ...        0 min,  0.027 sec
 * total energy  :   -82.2991799 Eh     change       -0.4532785E-01 Eh
   gradient norm :     0.0351996 Eh/α   predicted    -0.4470414E-01 (  -1.38%)
   displ. norm   :     0.0394662 α      lambda       -0.9540331E-03
   maximum displ.:     0.0101062 α      in ANC's #109, #36, #116, ...

........................................................................
.............................. CYCLE    4 ..............................
........................................................................
   1    -83.3749273 -0.833749E+02  0.271E-02    2.85       0.0  T
   2    -83.3749292 -0.193699E-05  0.171E-02    2.85       1.0  T
   3    -83.3749222  0.695970E-05  0.123E-02    2.85       1.1  T
   4    -83.3749307 -0.846140E-05  0.255E-03    2.85       5.1  T
   5    -83.3749311 -0.357521E-06  0.552E-04    2.85      23.4  T
   6    -83.3749311 -0.673958E-08  0.314E-04    2.85      41.1  T
     SCC iter.                  ...        0 min,  0.016 sec
     gradient                   ...        0 min,  0.028 sec
 * total energy  :   -82.2999053 Eh     change       -0.7253354E-03 Eh
   gradient norm :     0.0214552 Eh/α   predicted    -0.4777570E-03 ( -34.13%)
   displ. norm   :     0.1457729 α      lambda       -0.1383057E-02
   maximum displ.:     0.1105873 α      in ANC's #1, #29, #36, ...

........................................................................
.............................. CYCLE    5 ..............................
........................................................................
   1    -83.3751440 -0.833751E+02  0.996E-02    2.84       0.0  T
   2    -83.3751569 -0.128551E-04  0.597E-02    2.84       1.0  T
   3    -83.3751114  0.454426E-04  0.446E-02    2.84       1.0  T
   4    -83.3751860 -0.745694E-04  0.609E-03    2.84       2.1  T
   5    -83.3751878 -0.180910E-05  0.203E-03    2.84       6.4  T
   6    -83.3751881 -0.248899E-06  0.747E-04    2.84      17.3  T
   7    -83.3751881 -0.850311E-08  0.240E-04    2.84      53.8  T
     SCC iter.                  ...        0 min,  0.019 sec
     gradient                   ...        0 min,  0.027 sec
 * total energy  :   -82.2998909 Eh     change        0.1435271E-04 Eh
   gradient norm :     0.0279004 Eh/α   predicted    -0.7063404E-03 (*******%)
   displ. norm   :     0.3370819 α      lambda       -0.3793559E-02
   maximum displ.:     0.2801840 α      in ANC's #1, #29, #36, ...

........................................................................
.............................. CYCLE    6 ..............................
........................................................................
   1    -83.3735055 -0.833735E+02  0.225E-01    2.85       0.0  T
   2    -83.3735681 -0.625686E-04  0.134E-01    2.85       1.0  T
   3    -83.3734648  0.103305E-03  0.105E-01    2.85       1.0  T
   4    -83.3738220 -0.357159E-03  0.161E-02    2.85       1.0  T
   5    -83.3738356 -0.136331E-04  0.515E-03    2.85       2.5  T
   6    -83.3738371 -0.154426E-05  0.174E-03    2.85       7.4  T
   7    -83.3738372 -0.422927E-07  0.457E-04    2.85      28.3  T
   8    -83.3738372 -0.759655E-09  0.181E-04    2.85      71.5  T
     SCC iter.                  ...        0 min,  0.022 sec
     gradient                   ...        0 min,  0.027 sec
 * total energy  :   -82.2959943 Eh     change        0.3896603E-02 Eh
   gradient norm :     0.1038541 Eh/α   predicted    -0.2112615E-02 (-154.22%)
   displ. norm   :     0.2222527 α      lambda       -0.9987297E-02
   maximum displ.:     0.1603074 α      in ANC's #1, #36, #109, ...

........................................................................
.............................. CYCLE    7 ..............................
........................................................................
   1    -83.3767737 -0.833768E+02  0.154E-01    2.86       0.0  T
   2    -83.3768144 -0.406682E-04  0.933E-02    2.86       1.0  T
   3    -83.3767365  0.778368E-04  0.732E-02    2.86       1.0  T
   4    -83.3769278 -0.191306E-03  0.141E-02    2.86       1.0  T
   5    -83.3769380 -0.101943E-04  0.454E-03    2.86       2.8  T
   6    -83.3769392 -0.115590E-05  0.144E-03    2.86       9.0  T
   7    -83.3769392 -0.279247E-07  0.448E-04    2.86      28.8  T
   8    -83.3769392 -0.157557E-08  0.202E-04    2.86      64.0  T
     SCC iter.                  ...        0 min,  0.022 sec
     gradient                   ...        0 min,  0.027 sec
 * total energy  :   -82.3007962 Eh     change       -0.4801859E-02 Eh
   gradient norm :     0.0283990 Eh/α   predicted    -0.5241000E-02 (   9.15%)
   displ. norm   :     0.0273249 α      lambda       -0.2288837E-03
   maximum displ.:     0.0151709 α      in ANC's #1, #29, #36, ...

........................................................................
.............................. CYCLE    8 ..............................
........................................................................
   1    -83.3772116 -0.833772E+02  0.157E-02    2.85       0.0  T
   2    -83.3772118 -0.184628E-06  0.949E-03    2.85       1.4  T
   3    -83.3772106  0.125815E-05  0.626E-03    2.85       2.1  T
   4    -83.3772122 -0.169166E-05  0.428E-04    2.85      30.2  T
   5    -83.3772123 -0.639909E-08  0.197E-04    2.85      65.6  T
   6    -83.3772123 -0.464013E-09  0.139E-04    2.85      92.7  T
     SCC iter.                  ...        0 min,  0.016 sec
     gradient                   ...        0 min,  0.028 sec
 * total energy  :   -82.3009636 Eh     change       -0.1674723E-03 Eh
   gradient norm :     0.0087471 Eh/α   predicted    -0.1147134E-03 ( -31.50%)
   displ. norm   :     0.0686365 α      lambda       -0.3081183E-03
   maximum displ.:     0.0310572 α      in ANC's #29, #36, #28, ...

........................................................................
.............................. CYCLE    9 ..............................
........................................................................
   1    -83.3778120 -0.833778E+02  0.345E-02    2.84       0.0  T
   2    -83.3778124 -0.428060E-06  0.205E-02    2.84       1.0  T
   3    -83.3778109  0.153932E-05  0.549E-03    2.84       2.4  T
   4    -83.3778126 -0.172386E-05  0.948E-04    2.84      13.6  T
   5    -83.3778127 -0.321000E-07  0.349E-04    2.84      37.0  T
   6    -83.3778127  0.486153E-10  0.157E-04    2.84      82.1  T
     SCC iter.                  ...        0 min,  0.016 sec
     gradient                   ...        0 min,  0.027 sec
 * total energy  :   -82.3012008 Eh     change       -0.2372093E-03 Eh
   gradient norm :     0.0177169 Eh/α   predicted    -0.1545065E-03 ( -34.86%)
   displ. norm   :     0.1293910 α      lambda       -0.4286650E-03
   maximum displ.:     0.0606995 α      in ANC's #29, #28, #36, ...

........................................................................
.............................. CYCLE   10 ..............................
........................................................................
   1    -83.3786705 -0.833787E+02  0.624E-02    2.84       0.0  T
   2    -83.3786717 -0.120260E-05  0.369E-02    2.84       1.0  T
   3    -83.3786707  0.962054E-06  0.469E-03    2.84       2.8  T
   4    -83.3786718 -0.112446E-05  0.167E-03    2.84       7.8  T
   5    -83.3786720 -0.119306E-06  0.662E-04    2.84      19.5  T
   6    -83.3786720 -0.215232E-08  0.363E-04    2.84      35.5  T
     SCC iter.                  ...        0 min,  0.017 sec
     gradient                   ...        0 min,  0.028 sec
 * total energy  :   -82.3014898 Eh     change       -0.2889857E-03 Eh
   gradient norm :     0.0245126 Eh/α   predicted    -0.2168496E-03 ( -24.96%)
   displ. norm   :     0.0903550 α      lambda       -0.2067776E-03
   maximum displ.:     0.0435302 α      in ANC's #29, #28, #36, ...

........................................................................
.............................. CYCLE   11 ..............................
........................................................................
   1    -83.3792097 -0.833792E+02  0.414E-02    2.85       0.0  T
   2    -83.3792102 -0.501105E-06  0.244E-02    2.85       1.0  T
   3    -83.3792087  0.141049E-05  0.523E-03    2.85       2.5  T
   4    -83.3792103 -0.153453E-05  0.121E-03    2.85      10.7  T
   5    -83.3792104 -0.709080E-07  0.457E-04    2.85      28.3  T
   6    -83.3792104 -0.150908E-08  0.310E-04    2.85      41.7  T
     SCC iter.                  ...        0 min,  0.016 sec
     gradient                   ...        0 min,  0.028 sec
 * total energy  :   -82.3016341 Eh     change       -0.1443081E-03 Eh
   gradient norm :     0.0141504 Eh/α   predicted    -0.1040580E-03 ( -27.89%)
   displ. norm   :     0.0624107 α      lambda       -0.1364575E-03
   maximum displ.:     0.0303725 α      in ANC's #29, #28, #19, ...

........................................................................
.............................. CYCLE   12 ..............................
........................................................................
   1    -83.3797304 -0.833797E+02  0.272E-02    2.86       0.0  T
   2    -83.3797306 -0.237622E-06  0.160E-02    2.86       1.0  T
   3    -83.3797300  0.655920E-06  0.362E-03    2.86       3.6  T
   4    -83.3797307 -0.704912E-06  0.834E-04    2.86      15.5  T
   5    -83.3797307 -0.368624E-07  0.300E-04    2.86      43.0  T
     SCC iter.                  ...        0 min,  0.014 sec
     gradient                   ...        0 min,  0.028 sec
 * total energy  :   -82.3017326 Eh     change       -0.9842105E-04 Eh
   gradient norm :     0.0049847 Eh/α   predicted    -0.6848511E-04 ( -30.42%)
   displ. norm   :     0.0546323 α      lambda       -0.1141337E-03
   maximum displ.:     0.0244973 α      in ANC's #29, #28, #19, ...

........................................................................
.............................. CYCLE   13 ..............................
........................................................................
   1    -83.3801836 -0.833802E+02  0.235E-02    2.86       0.0  T
   2    -83.3801838 -0.178896E-06  0.139E-02    2.86       1.0  T
   3    -83.3801830  0.744068E-06  0.389E-03    2.86       3.3  T
   4    -83.3801839 -0.811697E-06  0.637E-04    2.86      20.3  T
   5    -83.3801839 -0.187173E-07  0.278E-04    2.86      46.4  T
     SCC iter.                  ...        0 min,  0.014 sec
     gradient                   ...        0 min,  0.028 sec
 * total energy  :   -82.3018151 Eh     change       -0.8249854E-04 Eh
   gradient norm :     0.0104578 Eh/α   predicted    -0.5723595E-04 ( -30.62%)
   displ. norm   :     0.0555023 α      lambda       -0.9937022E-04
   maximum displ.:     0.0226585 α      in ANC's #28, #29, #19, ...

........................................................................
.............................. CYCLE   14 ..............................
........................................................................
   1    -83.3803521 -0.833804E+02  0.225E-02    2.86       0.0  T
   2    -83.3803522 -0.131281E-06  0.134E-02    2.86       1.0  T
   3    -83.3803507  0.147745E-05  0.537E-03    2.86       2.4  T
   4    -83.3803523 -0.162840E-05  0.493E-04    2.86      26.2  T
   5    -83.3803524 -0.803071E-08  0.325E-04    2.86      39.7  T
   6    -83.3803524 -0.402966E-08  0.149E-04    2.86      86.4  T
     SCC iter.                  ...        0 min,  0.016 sec
     gradient                   ...        0 min,  0.028 sec
 * total energy  :   -82.3018871 Eh     change       -0.7208438E-04 Eh
   gradient norm :     0.0116614 Eh/α   predicted    -0.4982934E-04 ( -30.87%)
   displ. norm   :     0.0551867 α      lambda       -0.8762795E-04
   maximum displ.:     0.0229659 α      in ANC's #28, #8, #19, ...

........................................................................
.............................. CYCLE   15 ..............................
........................................................................
   1    -83.3801294 -0.833801E+02  0.196E-02    2.86       0.0  T
   2    -83.3801295 -0.987542E-07  0.118E-02    2.86       1.1  T
   3    -83.3801276  0.189863E-05  0.597E-03    2.86       2.2  T
   4    -83.3801298 -0.211619E-05  0.534E-04    2.86      24.2  T
   5    -83.3801298 -0.104862E-07  0.332E-04    2.86      38.9  T
   6    -83.3801298 -0.404275E-08  0.123E-04    2.86     104.8  T
     SCC iter.                  ...        0 min,  0.016 sec
     gradient                   ...        0 min,  0.028 sec
 * total energy  :   -82.3019493 Eh     change       -0.6216122E-04 Eh
   gradient norm :     0.0072852 Eh/α   predicted    -0.4394068E-04 ( -29.31%)
   displ. norm   :     0.0441000 α      lambda       -0.6442930E-04
   maximum displ.:     0.0187987 α      in ANC's #28, #8, #44, ...

........................................................................
.............................. CYCLE   16 ..............................
........................................................................
   1    -83.3796537 -0.833797E+02  0.138E-02    2.86       0.0  T
   2    -83.3796538 -0.977354E-07  0.834E-03    2.86       1.5  T
   3    -83.3796527  0.109301E-05  0.448E-03    2.86       2.9  T
   4    -83.3796540 -0.123791E-05  0.545E-04    2.86      23.7  T
   5    -83.3796540 -0.109682E-07  0.282E-04    2.86      45.8  T
   6    -83.3796540 -0.225855E-08  0.124E-04    2.86     103.8  T
     SCC iter.                  ...        0 min,  0.016 sec
     gradient                   ...        0 min,  0.028 sec
 * total energy  :   -82.3019949 Eh     change       -0.4554201E-04 Eh
   gradient norm :     0.0035190 Eh/α   predicted    -0.3229055E-04 ( -29.10%)
   displ. norm   :     0.0347663 α      lambda       -0.4691149E-04
   maximum displ.:     0.0153798 α      in ANC's #28, #8, #37, ...

........................................................................
.............................. CYCLE   17 ..............................
........................................................................
   1    -83.3791682 -0.833792E+02  0.121E-02    2.85       0.0  T
   2    -83.3791683 -0.878189E-07  0.719E-03    2.85       1.8  T
   3    -83.3791677  0.593714E-06  0.318E-03    2.85       4.1  T
   4    -83.3791683 -0.662471E-06  0.519E-04    2.85      24.9  T
   5    -83.3791683 -0.945505E-08  0.241E-04    2.85      53.5  T
     SCC iter.                  ...        0 min,  0.015 sec
     gradient                   ...        0 min,  0.028 sec
 * total energy  :   -82.3020288 Eh     change       -0.3390951E-04 Eh
   gradient norm :     0.0056419 Eh/α   predicted    -0.2350875E-04 ( -30.67%)
   displ. norm   :     0.0350168 α      lambda       -0.4123144E-04
   maximum displ.:     0.0166290 α      in ANC's #28, #8, #37, ...

........................................................................
.............................. CYCLE   18 ..............................
........................................................................
   1    -83.3787587 -0.833788E+02  0.140E-02    2.85       0.0  T
   2    -83.3787588 -0.592146E-07  0.823E-03    2.85       1.6  T
   3    -83.3787585  0.329721E-06  0.247E-03    2.85       5.2  T
   4    -83.3787588 -0.367948E-06  0.401E-04    2.85      32.2  T
   5    -83.3787588 -0.389949E-08  0.194E-04    2.85      66.4  T
     SCC iter.                  ...        0 min,  0.014 sec
     gradient                   ...        0 min,  0.028 sec
 * total energy  :   -82.3020589 Eh     change       -0.3013028E-04 Eh
   gradient norm :     0.0061786 Eh/α   predicted    -0.2065709E-04 ( -31.44%)
   displ. norm   :     0.0393996 α      lambda       -0.3994497E-04
   maximum displ.:     0.0197039 α      in ANC's #28, #8, #19, ...

........................................................................
.............................. CYCLE   19 ..............................
........................................................................
   1    -83.3784753 -0.833785E+02  0.154E-02    2.85       0.0  T
   2    -83.3784753 -0.410656E-07  0.916E-03    2.85       1.4  T
   3    -83.3784752  0.115763E-06  0.159E-03    2.85       8.1  T
   4    -83.3784753 -0.129629E-06  0.389E-04    2.85      33.2  T
   5    -83.3784753 -0.430394E-08  0.198E-04    2.85      65.3  T
     SCC iter.                  ...        0 min,  0.014 sec
     gradient                   ...        0 min,  0.028 sec
 * total energy  :   -82.3020880 Eh     change       -0.2907105E-04 Eh
   gradient norm :     0.0042922 Eh/α   predicted    -0.2001012E-04 ( -31.17%)
   displ. norm   :     0.0456120 α      lambda       -0.3814351E-04
   maximum displ.:     0.0239774 α      in ANC's #28, #8, #19, ...

........................................................................
.............................. CYCLE   20 ..............................
........................................................................
   1    -83.3783142 -0.833783E+02  0.157E-02    2.86       0.0  T
   2    -83.3783143 -0.652355E-07  0.940E-03    2.86       1.4  T
   3    -83.3783141  0.155117E-06  0.167E-03    2.86       7.7  T
   4    -83.3783143 -0.169811E-06  0.440E-04    2.86      29.3  T
   5    -83.3783143 -0.730559E-08  0.215E-04    2.86      60.1  T
     SCC iter.                  ...        0 min,  0.014 sec
     gradient                   ...        0 min,  0.027 sec
 * total energy  :   -82.3021158 Eh     change       -0.2782966E-04 Eh
   gradient norm :     0.0031540 Eh/α   predicted    -0.1911690E-04 ( -31.31%)
   displ. norm   :     0.0486109 α      lambda       -0.3605193E-04
   maximum displ.:     0.0257211 α      in ANC's #28, #8, #19, ...
 * RMSD in coord.:     0.1056829 α      energy gain  -0.1756065E+00 Eh

generating ANC from model Hessian ...
Using Lindh-Hessian (1995)
 Shifting diagonal of input Hessian by    1.0083058029981844E-002
 Lowest  eigenvalues of input Hessian
    0.010000    0.000000    0.000000    0.000000    0.000000    0.000000
    0.000000    0.010170    0.010222    0.010238    0.011020    0.011800
    0.012249    0.013309    0.013425    0.013463    0.015212    0.015246
 Highest eigenvalues
    1.719906    1.894491    1.897645    1.929846    8.696423    8.827443


........................................................................
.............................. CYCLE   21 ..............................
........................................................................
   1    -83.3782353 -0.833782E+02  0.148E-02    2.86       0.0  T
   2    -83.3782354 -0.110582E-06  0.896E-03    2.86       1.4  T
   3    -83.3782346  0.784287E-06  0.366E-03    2.86       3.5  T
   4    -83.3782355 -0.860989E-06  0.488E-04    2.86      26.4  T
   5    -83.3782355 -0.790595E-08  0.247E-04    2.86      52.2  T
     SCC iter.                  ...        0 min,  0.014 sec
     gradient                   ...        0 min,  0.028 sec
 * total energy  :   -82.3021419 Eh     change       -0.2615707E-04 Eh
   gradient norm :     0.0042275 Eh/α   predicted     0.0000000E+00 (-100.00%)
   displ. norm   :     0.0690094 α      lambda       -0.9212040E-04
   maximum displ.:     0.0342228 α      in ANC's #1, #6, #27, ...

........................................................................
.............................. CYCLE   22 ..............................
........................................................................
   1    -83.3782907 -0.833783E+02  0.197E-02    2.86       0.0  T
   2    -83.3782908 -0.666263E-07  0.116E-02    2.86       1.1  T
   3    -83.3782903  0.549684E-06  0.337E-03    2.86       3.8  T
   4    -83.3782909 -0.612915E-06  0.419E-04    2.86      30.8  T
   5    -83.3782909 -0.419374E-08  0.268E-04    2.86      48.1  T
     SCC iter.                  ...        0 min,  0.014 sec
     gradient                   ...        0 min,  0.028 sec
 * total energy  :   -82.3022104 Eh     change       -0.6849213E-04 Eh
   gradient norm :     0.0033454 Eh/α   predicted    -0.4628029E-04 ( -32.43%)
   displ. norm   :     0.1282495 α      lambda       -0.9188055E-04
   maximum displ.:     0.0685847 α      in ANC's #1, #6, #2, ...

........................................................................
.............................. CYCLE   23 ..............................
........................................................................
   1    -83.3782802 -0.833783E+02  0.297E-02    2.87       0.0  T
   2    -83.3782803 -0.116472E-06  0.176E-02    2.87       1.0  T
   3    -83.3782793  0.100612E-05  0.444E-03    2.87       2.9  T
   4    -83.3782804 -0.112225E-05  0.569E-04    2.87      22.7  T
   5    -83.3782804 -0.146748E-08  0.348E-04    2.87      37.1  T
   6    -83.3782804 -0.150821E-08  0.205E-04    2.87      63.1  T
     SCC iter.                  ...        0 min,  0.016 sec
     gradient                   ...        0 min,  0.028 sec
 * total energy  :   -82.3022707 Eh     change       -0.6026593E-04 Eh
   gradient norm :     0.0012872 Eh/α   predicted    -0.4670395E-04 ( -22.50%)
   displ. norm   :     0.1585139 α      lambda       -0.4248377E-04
   maximum displ.:     0.0905566 α      in ANC's #1, #6, #2, ...

........................................................................
.............................. CYCLE   24 ..............................
........................................................................
   1    -83.3780501 -0.833781E+02  0.308E-02    2.87       0.0  T
   2    -83.3780502 -0.933190E-07  0.185E-02    2.87       1.0  T
   3    -83.3780495  0.680245E-06  0.348E-03    2.87       3.7  T
   4    -83.3780503 -0.753341E-06  0.634E-04    2.87      20.4  T
   5    -83.3780503 -0.313028E-08  0.407E-04    2.87      31.7  T
     SCC iter.                  ...        0 min,  0.014 sec
     gradient                   ...        0 min,  0.028 sec
 * total energy  :   -82.3023122 Eh     change       -0.4145170E-04 Eh
   gradient norm :     0.0066227 Eh/α   predicted    -0.2148003E-04 ( -48.18%)
   displ. norm   :     0.0883044 α      lambda       -0.3780704E-04
   maximum displ.:     0.0508710 α      in ANC's #1, #2, #6, ...

........................................................................
.............................. CYCLE   25 ..............................
........................................................................
   1    -83.3780179 -0.833780E+02  0.153E-02    2.88       0.0  T
   2    -83.3780179 -0.239964E-07  0.915E-03    2.88       1.4  T
   3    -83.3780178  0.120445E-06  0.158E-03    2.88       8.2  T
   4    -83.3780179 -0.137250E-06  0.316E-04    2.88      40.8  T
   5    -83.3780179 -0.847379E-09  0.197E-04    2.88      65.7  T
     SCC iter.                  ...        0 min,  0.014 sec
     gradient                   ...        0 min,  0.028 sec
 * total energy  :   -82.3023418 Eh     change       -0.2965641E-04 Eh
   gradient norm :     0.0012561 Eh/α   predicted    -0.1905368E-04 ( -35.75%)
   displ. norm   :     0.2146514 α      lambda       -0.4629535E-04
   maximum displ.:     0.1270526 α      in ANC's #1, #2, #6, ...

........................................................................
.............................. CYCLE   26 ..............................
........................................................................
   1    -83.3777359 -0.833777E+02  0.351E-02    2.88       0.0  T
   2    -83.3777361 -0.162020E-06  0.210E-02    2.88       1.0  T
   3    -83.3777356  0.510821E-06  0.293E-03    2.88       4.4  T
   4    -83.3777362 -0.575904E-06  0.878E-04    2.88      14.7  T
   5    -83.3777362 -0.212622E-07  0.448E-04    2.88      28.8  T
     SCC iter.                  ...        0 min,  0.014 sec
     gradient                   ...        0 min,  0.029 sec
 * total energy  :   -82.3023839 Eh     change       -0.4212264E-04 Eh
   gradient norm :     0.0018929 Eh/α   predicted    -0.2362247E-04 ( -43.92%)
   displ. norm   :     0.1181462 α      lambda       -0.2013384E-04
   maximum displ.:     0.0708605 α      in ANC's #1, #2, #6, ...

........................................................................
.............................. CYCLE   27 ..............................
........................................................................
   1    -83.3777136 -0.833777E+02  0.160E-02    2.88       0.0  T
   2    -83.3777136 -0.605610E-07  0.952E-03    2.88       1.4  T
   3    -83.3777133  0.314228E-06  0.232E-03    2.88       5.6  T
   4    -83.3777137 -0.343663E-06  0.491E-04    2.88      26.3  T
   5    -83.3777137 -0.922994E-08  0.226E-04    2.88      57.0  T
     SCC iter.                  ...        0 min,  0.014 sec
     gradient                   ...        0 min,  0.028 sec
 * total energy  :   -82.3024093 Eh     change       -0.2536055E-04 Eh
   gradient norm :     0.0025152 Eh/α   predicted    -0.1013025E-04 ( -60.06%)
   displ. norm   :     0.1226153 α      lambda       -0.3328692E-04
   maximum displ.:     0.0742010 α      in ANC's #2, #1, #10, ...

........................................................................
.............................. CYCLE   28 ..............................
........................................................................
   1    -83.3779477 -0.833779E+02  0.156E-02    2.88       0.0  T
   2    -83.3779477 -0.526526E-07  0.929E-03    2.88       1.4  T
   3    -83.3779473  0.420306E-06  0.251E-03    2.88       5.1  T
   4    -83.3779478 -0.455432E-06  0.479E-04    2.88      26.9  T
   5    -83.3779478 -0.827282E-08  0.231E-04    2.88      56.0  T
     SCC iter.                  ...        0 min,  0.014 sec
     gradient                   ...        0 min,  0.028 sec
 * total energy  :   -82.3024367 Eh     change       -0.2742978E-04 Eh
   gradient norm :     0.0024477 Eh/α   predicted    -0.1689397E-04 ( -38.41%)
   displ. norm   :     0.1880126 α      lambda       -0.4197742E-04
   maximum displ.:     0.1150338 α      in ANC's #2, #1, #10, ...

........................................................................
.............................. CYCLE   29 ..............................
........................................................................
   1    -83.3781135 -0.833781E+02  0.229E-02    2.88       0.0  T
   2    -83.3781136 -0.966274E-07  0.137E-02    2.88       1.0  T
   3    -83.3781135  0.753146E-07  0.137E-03    2.88       9.4  T
   4    -83.3781136 -0.991738E-07  0.534E-04    2.88      24.2  T
   5    -83.3781136 -0.890019E-08  0.263E-04    2.88      49.0  T
     SCC iter.                  ...        0 min,  0.014 sec
     gradient                   ...        0 min,  0.028 sec
 * total energy  :   -82.3024676 Eh     change       -0.3085988E-04 Eh
   gradient norm :     0.0028364 Eh/α   predicted    -0.2173123E-04 ( -29.58%)
   displ. norm   :     0.1622072 α      lambda       -0.2584371E-04
   maximum displ.:     0.1025162 α      in ANC's #2, #1, #4, ...

........................................................................
.............................. CYCLE   30 ..............................
........................................................................
   1    -83.3780958 -0.833781E+02  0.190E-02    2.87       0.0  T
   2    -83.3780958 -0.527346E-07  0.113E-02    2.87       1.1  T
   3    -83.3780958  0.365414E-07  0.989E-04    2.87      13.1  T
   4    -83.3780958 -0.510653E-07  0.398E-04    2.87      32.5  T
     SCC iter.                  ...        0 min,  0.011 sec
     gradient                   ...        0 min,  0.028 sec
 * total energy  :   -82.3024882 Eh     change       -0.2063044E-04 Eh
   gradient norm :     0.0016950 Eh/α   predicted    -0.1326617E-04 ( -35.70%)
   displ. norm   :     0.2074652 α      lambda       -0.2255393E-04
   maximum displ.:     0.1354905 α      in ANC's #2, #1, #4, ...

........................................................................
.............................. CYCLE   31 ..............................
........................................................................
   1    -83.3781431 -0.833781E+02  0.239E-02    2.87       0.0  T
   2    -83.3781431 -0.880734E-07  0.143E-02    2.87       1.0  T
   3    -83.3781424  0.778395E-06  0.341E-03    2.87       3.8  T
   4    -83.3781432 -0.842190E-06  0.554E-04    2.87      23.3  T
   5    -83.3781432 -0.915959E-08  0.279E-04    2.87      46.2  T
     SCC iter.                  ...        0 min,  0.014 sec
     gradient                   ...        0 min,  0.028 sec
 * total energy  :   -82.3025154 Eh     change       -0.2721015E-04 Eh
   gradient norm :     0.0017855 Eh/α   predicted    -0.1149429E-04 ( -57.76%)
   displ. norm   :     0.1808738 α      lambda       -0.2064137E-04
   maximum displ.:     0.1223048 α      in ANC's #2, #1, #4, ...

........................................................................
.............................. CYCLE   32 ..............................
........................................................................
   1    -83.3782266 -0.833782E+02  0.216E-02    2.88       0.0  T
   2    -83.3782267 -0.693402E-07  0.129E-02    2.88       1.0  T
   3    -83.3782260  0.684697E-06  0.315E-03    2.88       4.1  T
   4    -83.3782267 -0.737324E-06  0.511E-04    2.88      25.3  T
   5    -83.3782267 -0.959911E-08  0.233E-04    2.88      55.4  T
     SCC iter.                  ...        0 min,  0.014 sec
     gradient                   ...        0 min,  0.028 sec
 * total energy  :   -82.3025405 Eh     change       -0.2511765E-04 Eh
   gradient norm :     0.0019788 Eh/α   predicted    -0.1047378E-04 ( -58.30%)
   displ. norm   :     0.1857758 α      lambda       -0.1961664E-04
   maximum displ.:     0.1265657 α      in ANC's #2, #1, #4, ...

........................................................................
.............................. CYCLE   33 ..............................
........................................................................
   1    -83.3781607 -0.833782E+02  0.229E-02    2.88       0.0  T
   2    -83.3781608 -0.498773E-07  0.136E-02    2.88       1.0  T
   3    -83.3781602  0.588376E-06  0.292E-03    2.88       4.4  T
   4    -83.3781608 -0.638719E-06  0.408E-04    2.88      31.6  T
   5    -83.3781608 -0.371645E-08  0.221E-04    2.88      58.4  T
     SCC iter.                  ...        0 min,  0.014 sec
     gradient                   ...        0 min,  0.028 sec
 * total energy  :   -82.3025647 Eh     change       -0.2419178E-04 Eh
   gradient norm :     0.0015873 Eh/α   predicted    -0.9960463E-05 ( -58.83%)
   displ. norm   :     0.1984572 α      lambda       -0.2021020E-04
   maximum displ.:     0.1340418 α      in ANC's #2, #1, #4, ...

........................................................................
.............................. CYCLE   34 ..............................
........................................................................
   1    -83.3781438 -0.833781E+02  0.250E-02    2.88       0.0  T
   2    -83.3781438 -0.646667E-07  0.148E-02    2.88       1.0  T
   3    -83.3781437  0.155812E-06  0.185E-03    2.88       7.0  T
   4    -83.3781439 -0.187167E-06  0.421E-04    2.88      30.6  T
   5    -83.3781439 -0.243840E-08  0.215E-04    2.88      60.2  T
     SCC iter.                  ...        0 min,  0.014 sec
     gradient                   ...        0 min,  0.028 sec
 * total energy  :   -82.3025900 Eh     change       -0.2527260E-04 Eh
   gradient norm :     0.0021228 Eh/α   predicted    -0.1028433E-04 ( -59.31%)
   displ. norm   :     0.1472087 α      lambda       -0.2132034E-04
   maximum displ.:     0.0986972 α      in ANC's #2, #4, #1, ...

........................................................................
.............................. CYCLE   35 ..............................
........................................................................
   1    -83.3781641 -0.833782E+02  0.185E-02    2.88       0.0  T
   2    -83.3781641 -0.409159E-07  0.109E-02    2.88       1.2  T
   3    -83.3781640  0.172924E-06  0.184E-03    2.88       7.0  T
   4    -83.3781642 -0.198443E-06  0.315E-04    2.88      41.0  T
   5    -83.3781642 -0.127309E-08  0.167E-04    2.88      77.1  T
     SCC iter.                  ...        0 min,  0.014 sec
     gradient                   ...        0 min,  0.028 sec
 * total energy  :   -82.3026086 Eh     change       -0.1863996E-04 Eh
   gradient norm :     0.0009036 Eh/α   predicted    -0.1089306E-04 ( -41.56%)
   displ. norm   :     0.2599595 α      lambda       -0.2237407E-04
   maximum displ.:     0.1742632 α      in ANC's #2, #4, #1, ...

........................................................................
.............................. CYCLE   36 ..............................
........................................................................
   1    -83.3781208 -0.833781E+02  0.320E-02    2.88       0.0  T
   2    -83.3781209 -0.142730E-06  0.190E-02    2.88       1.0  T
   3    -83.3781200  0.893311E-06  0.407E-03    2.88       3.2  T
   4    -83.3781210 -0.996414E-06  0.627E-04    2.88      20.6  T
   5    -83.3781210 -0.706693E-08  0.362E-04    2.88      35.7  T
     SCC iter.                  ...        0 min,  0.014 sec
     gradient                   ...        0 min,  0.028 sec
 * total energy  :   -82.3026336 Eh     change       -0.2499593E-04 Eh
   gradient norm :     0.0007887 Eh/α   predicted    -0.1152410E-04 ( -53.90%)
   displ. norm   :     0.1425292 α      lambda       -0.8645957E-05
   maximum displ.:     0.0991187 α      in ANC's #2, #4, #1, ...

........................................................................
.............................. CYCLE   37 ..............................
........................................................................
   1    -83.3782577 -0.833783E+02  0.163E-02    2.88       0.0  T
   2    -83.3782577 -0.298066E-07  0.969E-03    2.88       1.3  T
   3    -83.3782576  0.159490E-06  0.178E-03    2.88       7.3  T
   4    -83.3782577 -0.181179E-06  0.285E-04    2.88      45.3  T
   5    -83.3782577 -0.749026E-09  0.161E-04    2.88      80.4  T
     SCC iter.                  ...        0 min,  0.018 sec
     gradient                   ...        0 min,  0.028 sec
 * total energy  :   -82.3026445 Eh     change       -0.1089934E-04 Eh
   gradient norm :     0.0009327 Eh/α   predicted    -0.4366991E-05 ( -59.93%)
   displ. norm   :     0.0878160 α      lambda       -0.6537418E-05
   maximum displ.:     0.0626408 α      in ANC's #2, #4, #1, ...

........................................................................
.............................. CYCLE   38 ..............................
........................................................................
   1    -83.3784286 -0.833784E+02  0.907E-03    2.88       0.0  T
   2    -83.3784286 -0.844855E-08  0.541E-03    2.88       2.4  T
   3    -83.3784286  0.501233E-07  0.942E-04    2.88      13.7  T
   4    -83.3784286 -0.566044E-07  0.170E-04    2.88      76.0  T
     SCC iter.                  ...        0 min,  0.011 sec
     gradient                   ...        0 min,  0.028 sec
 * total energy  :   -82.3026536 Eh     change       -0.9006310E-05 Eh
   gradient norm :     0.0011885 Eh/α   predicted    -0.3280280E-05 ( -63.58%)
   displ. norm   :     0.1102087 α      lambda       -0.9834042E-05
   maximum displ.:     0.0769353 α      in ANC's #2, #4, #22, ...

........................................................................
.............................. CYCLE   39 ..............................
........................................................................
   1    -83.3784128 -0.833784E+02  0.112E-02    2.88       0.0  T
   2    -83.3784129 -0.122495E-07  0.671E-03    2.88       1.9  T
   3    -83.3784127  0.148715E-06  0.153E-03    2.88       8.4  T
   4    -83.3784129 -0.162556E-06  0.233E-04    2.88      55.4  T
   5    -83.3784129 -0.787225E-09  0.152E-04    2.88      84.8  T
     SCC iter.                  ...        0 min,  0.014 sec
     gradient                   ...        0 min,  0.028 sec
 * total energy  :   -82.3026669 Eh     change       -0.1335126E-04 Eh
   gradient norm :     0.0009357 Eh/α   predicted    -0.4946913E-05 ( -62.95%)
   displ. norm   :     0.1682181 α      lambda       -0.1435588E-04
   maximum displ.:     0.1149499 α      in ANC's #2, #4, #3, ...

........................................................................
.............................. CYCLE   40 ..............................
........................................................................
   1    -83.3782832 -0.833783E+02  0.176E-02    2.88       0.0  T
   2    -83.3782832 -0.444451E-07  0.105E-02    2.88       1.2  T
   3    -83.3782826  0.564659E-06  0.300E-03    2.88       4.3  T
   4    -83.3782833 -0.622874E-06  0.376E-04    2.88      34.3  T
   5    -83.3782833 -0.154630E-08  0.253E-04    2.88      51.1  T
     SCC iter.                  ...        0 min,  0.014 sec
     gradient                   ...        0 min,  0.028 sec
 * total energy  :   -82.3026852 Eh     change       -0.1833753E-04 Eh
   gradient norm :     0.0008629 Eh/α   predicted    -0.7270156E-05 ( -60.35%)
   displ. norm   :     0.2018901 α      lambda       -0.1454826E-04
   maximum displ.:     0.1380353 α      in ANC's #2, #4, #3, ...

........................................................................
.............................. CYCLE   41 ..............................
........................................................................
   1    -83.3781314 -0.833781E+02  0.202E-02    2.88       0.0  T
   2    -83.3781314 -0.547215E-07  0.121E-02    2.88       1.1  T
   3    -83.3781310  0.457769E-06  0.277E-03    2.88       4.7  T
   4    -83.3781315 -0.512848E-06  0.375E-04    2.88      34.4  T
   5    -83.3781315 -0.881116E-09  0.224E-04    2.88      57.5  T
     SCC iter.                  ...        0 min,  0.014 sec
     gradient                   ...        0 min,  0.028 sec
 * total energy  :   -82.3027035 Eh     change       -0.1829310E-04 Eh
   gradient norm :     0.0011065 Eh/α   predicted    -0.7407177E-05 ( -59.51%)
   displ. norm   :     0.2000708 α      lambda       -0.1290646E-04
   maximum displ.:     0.1366015 α      in ANC's #2, #4, #3, ...

........................................................................
.............................. CYCLE   42 ..............................
........................................................................
   1    -83.3780123 -0.833780E+02  0.201E-02    2.88       0.0  T
   2    -83.3780123 -0.553534E-07  0.120E-02    2.88       1.1  T
   3    -83.3780117  0.630172E-06  0.322E-03    2.88       4.0  T
   4    -83.3780124 -0.701570E-06  0.384E-04    2.88      33.6  T
   5    -83.3780124 -0.490544E-09  0.244E-04    2.88      53.0  T
     SCC iter.                  ...        0 min,  0.014 sec
     gradient                   ...        0 min,  0.028 sec
 * total energy  :   -82.3027204 Eh     change       -0.1687518E-04 Eh
   gradient norm :     0.0006301 Eh/α   predicted    -0.6568963E-05 ( -61.07%)
   displ. norm   :     0.2273688 α      lambda       -0.1490399E-04
   maximum displ.:     0.1553752 α      in ANC's #2, #4, #3, ...
 * RMSD in coord.:     0.3846268 α      energy gain  -0.6046173E-03 Eh

generating ANC from model Hessian ...
Using Lindh-Hessian (1995)
 Shifting diagonal of input Hessian by    1.0032487944325139E-002
 Lowest  eigenvalues of input Hessian
    0.010000    0.000000    0.000000    0.000000    0.000000    0.000000
    0.000000    0.010122    0.010171    0.010187    0.010946    0.011781
    0.012302    0.013195    0.013343    0.013400    0.015067    0.015226
 Highest eigenvalues
    1.723316    1.892709    1.897423    1.927953    8.682059    8.828435


........................................................................
.............................. CYCLE   43 ..............................
........................................................................
   1    -83.3779200 -0.833779E+02  0.221E-02    2.88       0.0  T
   2    -83.3779200 -0.543191E-07  0.132E-02    2.88       1.0  T
   3    -83.3779197  0.310764E-06  0.228E-03    2.88       5.7  T
   4    -83.3779201 -0.357023E-06  0.393E-04    2.88      32.9  T
   5    -83.3779201 -0.599357E-09  0.224E-04    2.88      57.7  T
     SCC iter.                  ...        0 min,  0.014 sec
     gradient                   ...        0 min,  0.028 sec
 * total energy  :   -82.3027401 Eh     change       -0.1972537E-04 Eh
   gradient norm :     0.0011827 Eh/α   predicted     0.0000000E+00 (-100.00%)
   displ. norm   :     0.0260611 α      lambda        0.2562954E-05
   maximum displ.:     0.0116076 α      in ANC's #2, #1, #22, ...

........................................................................
.............................. CYCLE   44 ..............................
........................................................................
   1    -83.3782353 -0.833782E+02  0.394E-03    2.88       0.0  T
   2    -83.3782353 -0.860453E-08  0.235E-03    2.88       5.5  T
   3    -83.3782353  0.626049E-08  0.372E-04    2.88      34.7  T
   4    -83.3782353 -0.613967E-08  0.171E-04    2.88      75.4  T
     SCC iter.                  ...        0 min,  0.011 sec
     gradient                   ...        0 min,  0.028 sec
 * total energy  :   -82.3027464 Eh     change       -0.6290890E-05 Eh
   gradient norm :     0.0016769 Eh/α   predicted    -0.2568804E-05 ( -59.17%)
   displ. norm   :     0.1150721 α      lambda       -0.1706788E-04
   maximum displ.:     0.0509435 α      in ANC's #2, #1, #5, ...

........................................................................
.............................. CYCLE   45 ..............................
........................................................................
   1    -83.3787576 -0.833788E+02  0.165E-02    2.88       0.0  T
   2    -83.3787577 -0.731741E-07  0.988E-03    2.88       1.3  T
   3    -83.3787576  0.122175E-06  0.158E-03    2.88       8.2  T
   4    -83.3787577 -0.139889E-06  0.431E-04    2.88      30.0  T
   5    -83.3787577 -0.625361E-08  0.200E-04    2.88      64.4  T
     SCC iter.                  ...        0 min,  0.014 sec
     gradient                   ...        0 min,  0.027 sec
 * total energy  :   -82.3027609 Eh     change       -0.1447443E-04 Eh
   gradient norm :     0.0025402 Eh/α   predicted    -0.8596706E-05 ( -40.61%)
   displ. norm   :     0.0787384 α      lambda        0.1085175E-04
   maximum displ.:     0.0350308 α      in ANC's #2, #1, #5, ...

........................................................................
.............................. CYCLE   46 ..............................
........................................................................
   1    -83.3789741 -0.833790E+02  0.113E-02    2.88       0.0  T
   2    -83.3789742 -0.340226E-07  0.674E-03    2.88       1.9  T
   3    -83.3789741  0.637572E-07  0.110E-03    2.88      11.7  T
   4    -83.3789742 -0.739744E-07  0.268E-04    2.88      48.2  T
   5    -83.3789742 -0.218040E-08  0.120E-04    2.88     107.4  T
     SCC iter.                  ...        0 min,  0.013 sec
     gradient                   ...        0 min,  0.027 sec
 * total energy  :   -82.3027583 Eh     change        0.2561230E-05 Eh
   gradient norm :     0.0052574 Eh/α   predicted     0.5454676E-05 ( 112.97%)
   displ. norm   :     0.0320015 α      lambda       -0.1127533E-04
   maximum displ.:     0.0116065 α      in ANC's #22, #21, #25, ...

........................................................................
.............................. CYCLE   47 ..............................
........................................................................
   1    -83.3785243 -0.833785E+02  0.613E-03    2.88       0.0  T
   2    -83.3785243 -0.234362E-07  0.365E-03    2.88       3.5  T
   3    -83.3785242  0.104461E-06  0.131E-03    2.88       9.8  T
   4    -83.3785243 -0.112158E-06  0.286E-04    2.88      45.2  T
   5    -83.3785243 -0.434451E-08  0.103E-04    2.88     125.8  T
     SCC iter.                  ...        0 min,  0.014 sec
     gradient                   ...        0 min,  0.026 sec
 * total energy  :   -82.3027648 Eh     change       -0.6487904E-05 Eh
   gradient norm :     0.0010160 Eh/α   predicted    -0.5648263E-05 ( -12.94%)
   displ. norm   :     0.0193332 α      lambda       -0.2403097E-05
   maximum displ.:     0.0112164 α      in ANC's #2, #1, #4, ...

........................................................................
.............................. CYCLE   48 ..............................
........................................................................
   1    -83.3782635 -0.833783E+02  0.392E-03    2.88       0.0  T
   2    -83.3782635 -0.743397E-08  0.234E-03    2.88       5.5  T
   3    -83.3782634  0.754059E-07  0.111E-03    2.88      11.6  T
   4    -83.3782635 -0.823077E-07  0.171E-04    2.88      75.7  T
   5    -83.3782635 -0.133981E-08  0.687E-05    2.88     187.9  T
     SCC iter.                  ...        0 min,  0.013 sec
     gradient                   ...        0 min,  0.026 sec
 * total energy  :   -82.3027676 Eh     change       -0.2745275E-05 Eh
   gradient norm :     0.0012564 Eh/α   predicted    -0.1215885E-05 ( -55.71%)
   displ. norm   :     0.0450612 α      lambda       -0.3361028E-05
   maximum displ.:     0.0285424 α      in ANC's #2, #1, #4, ...

........................................................................
.............................. CYCLE   49 ..............................
........................................................................
   1    -83.3780936 -0.833781E+02  0.679E-03    2.88       0.0  T
   2    -83.3780936 -0.118059E-07  0.406E-03    2.88       3.2  T
   3    -83.3780934  0.234271E-06  0.193E-03    2.88       6.7  T
   4    -83.3780936 -0.255398E-06  0.232E-04    2.88      55.7  T
   5    -83.3780936 -0.211392E-08  0.112E-04    2.88     114.9  T
     SCC iter.                  ...        0 min,  0.013 sec
     gradient                   ...        0 min,  0.026 sec
 * total energy  :   -82.3027717 Eh     change       -0.4083395E-05 Eh
   gradient norm :     0.0006877 Eh/α   predicted    -0.1687722E-05 ( -58.67%)
   displ. norm   :     0.0700276 α      lambda       -0.3954749E-05
   maximum displ.:     0.0446309 α      in ANC's #2, #1, #4, ...

   *** GEOMETRY OPTIMIZATION CONVERGED AFTER 49 ITERATIONS ***

------------------------------------------------------------------------
 total energy gain   :        -0.1762624 Eh     -110.6063 kcal/mol
 total RMSD          :         0.4267183 a0        0.2258 Å
 total power (kW/mol):        -9.4444239 (step) -181.6859 (real)
------------------------------------------------------------------------

 ANCopt (total)                0 d,  0 h,  0 min,  2.547 sec
 optimizer setup                ...        0 min,  0.000 sec (  0.004%)
 model hessian                  ...        0 min,  0.095 sec (  3.728%)
 ANC generation                 ...        0 min,  0.008 sec (  0.320%)
 coordinate transformation      ...        0 min,  0.001 sec (  0.028%)
 single point calculation       ...        0 min,  2.426 sec ( 95.260%)
 optimization log               ...        0 min,  0.010 sec (  0.391%)
 hessian update                 ...        0 min,  0.001 sec (  0.044%)
 rational function              ...        0 min,  0.004 sec (  0.146%)

================
 final structure:
================
60
 xtb: 6.5.0 (homebrew)
C            3.35184477659260      -38.01352742427581       16.11256604471068
C            3.62352493640615      -38.24602681874373       17.59729795727169
O            3.23550165671436      -37.09231919798960       18.33955041898971
C            2.74952207802066      -39.40634762778214       18.09107447716170
C            5.13976505803914      -38.41952969285964       17.97479851927887
C            5.58329779098499      -39.86166105859037       18.21105790559438
C            6.08572191598850      -37.76391287636019       16.96042370821915
O            5.25796796090365      -37.68118035501433       19.18957841056406
B            4.16937271650457      -36.85898642175083       19.31396786521696
C            3.99999613775262      -35.80918684117931       20.44469801428113
C            5.02404477429377      -35.56162772536399       21.29578796122364
C            5.08220342891924      -34.63711517957107       22.37644071177133
H            6.03105801281627      -34.52912769469044       22.87933844913735
C            3.89739425291222      -34.00599855473315       23.06942245564004
H            4.11634351261865      -33.71630450410584       24.09402919948922
C            2.55558217921723      -34.64326582991404       22.98984187822395
B            1.77727410109590      -34.83026539430382       24.33018929698047
O            2.27130397912034      -34.45870773620865       25.55130190326268
C            1.40021398499593      -34.95347124505355       26.56778582736827
C            1.24358186292850      -33.90133129799202       27.66346809723869
C            2.07249884246796      -36.19919489789111       27.15990958772875
C            0.08489421123720      -35.28885483421866       25.77509377453649
C           -0.93730100266921      -34.14551181444665       25.80543300944484
C           -0.60411529729689      -36.58680551070978       26.19029973734177
O            0.54089667933031      -35.40301001669595       24.42700530911059
C            2.03857893008478      -35.08752889643382       21.84109606495737
C            2.69356463848385      -35.02965878984593       20.49729725620206
H            2.01931619740930      -35.46314092435004       19.75659949755661
C            3.07382552171318      -33.64346789233689       20.04991484435124
C            3.82876863050016      -32.78741158686110       20.75188209241094
C            4.35862188516561      -32.98828262012143       22.06483271414167
H            5.02466693651585      -32.22713885657668       22.44248836682372
H            2.27893618039229      -37.92407098423998       15.96088553398393
H            3.72103168822312      -38.85147104311419       15.52730655939558
H            3.81763614808629      -37.09634193834102       15.76694793591677
H            1.70560028953698      -39.13783833376046       17.94543040166063
H            2.90834574937474      -39.56963056695723       19.15417857880174
H            2.95984736265903      -40.31927074381386       17.54202226701634
H            5.41750806006251      -40.45781070742360       17.31771899713957
H            5.05061066001056      -40.30344157949116       19.04683550309507
H            6.64449300961634      -39.86889889896550       18.44728974983430
H            6.08061204820503      -38.29805600723351       16.01495430112901
H            7.09310270585382      -37.77793749679102       17.36997037543567
H            5.80361878411771      -36.72636766366966       16.79994708510377
H            5.93992849336837      -36.11449961157106       21.12006067739572
H            2.20351740022226      -33.75822691654707       28.15371032796545
H            0.51817990893928      -34.23308181322967       28.40137637123444
H            0.93128222239454      -32.94731203804646       27.25085751709777
H            3.05110449536102      -35.91566473867122       27.54055690568613
H            2.21787335212023      -36.94960046399899       26.38664586761978
H            1.48420038435718      -36.61525298426546       27.97223418461592
H           -1.36185997046335      -34.02437002006350       26.79752111954546
H           -1.73520866936154      -34.37801229318698       25.10381764135930
H           -0.47160489842581      -33.21637562136482       25.48675218803389
H           -0.87463112226793      -36.54937841309086       27.24210762825653
H            0.03513916998654      -37.44473999551384       26.00996212312572
H           -1.50753542296268      -36.71010455657079       25.59857159366780
H            1.06225212489584      -35.55104769810616       21.87831044107672
H            2.78434705915949      -33.37720075407726       19.04332958550109
H            4.11567149679530      -31.85108600092156       20.28602718309793

 Bond Distances (Angstroems)
 ---------------------------
C1-C2=1.5272         C1-H33=1.0873        C1-H34=1.0867        C1-H35=1.0852        C2-C1=1.5272         C2-O3=1.4257         
C2-C4=1.5343         C2-C5=1.5721         O3-C2=1.4257         O3-B9=1.3697         C4-C2=1.5343         C4-H36=1.0877        
C4-H37=1.0872        C4-H38=1.0859        C5-C2=1.5721         C5-C6=1.5272         C5-C7=1.5342         C5-O8=1.4265         
C6-C5=1.5272         C6-H39=1.0867        C6-H40=1.0851        C6-H41=1.0872        C7-C5=1.5342         C7-H42=1.0859        
C7-H43=1.0875        C7-H44=1.0871        O8-C5=1.4265         O8-B9=1.3699         B9-O3=1.3697         B9-O8=1.3699         
B9-C10=1.5522        C10-B9=1.5522        C10-C11=1.3544       C10-C27=1.5222       C11-C10=1.3544       C11-C12=1.4233       
C11-H45=1.0842       C12-C11=1.4233       C12-H13=1.0793       C12-C14=1.5107       C12-C31=1.8274       H13-C12=1.0793       
C14-C12=1.5107       C14-H15=1.0871       C14-C16=1.4876       C14-C31=1.5026       H15-C14=1.0871       C16-C14=1.4876       
C16-B17=1.5612       C16-C26=1.3358       B17-C16=1.5612       B17-O18=1.3687       B17-O25=1.3660       O18-B17=1.3687       
O18-C19=1.4272       C19-O18=1.4272       C19-C20=1.5271       C19-C21=1.5344       C19-C22=1.5719       C20-C19=1.5271       
C20-H46=1.0873       C20-H47=1.0866       C20-H48=1.0853       C21-C19=1.5344       C21-H49=1.0876       C21-H50=1.0873       
C21-H51=1.0859       C22-C19=1.5719       C22-C23=1.5340       C22-C24=1.5270       C22-O25=1.4277       C23-C22=1.5340       
C23-H52=1.0859       C23-H53=1.0876       C23-H54=1.0871       C24-C22=1.5270       C24-H55=1.0867       C24-H56=1.0850       
C24-H57=1.0870       O25-B17=1.3660       O25-C22=1.4277       C26-C16=1.3358       C26-C27=1.4960       C26-H58=1.0814       
C27-C10=1.5222       C27-C26=1.4960       C27-H28=1.0914       C27-C29=1.5054       H28-C27=1.0914       C29-C27=1.5054       
C29-C30=1.3400       C29-H59=1.0807       C30-C29=1.3400       C30-C31=1.4300       C30-H60=1.0845       C31-C12=1.8274       
C31-C14=1.5026       C31-C30=1.4300       C31-H32=1.0796       H32-C31=1.0796       H33-C1=1.0873        H34-C1=1.0867        
H35-C1=1.0852        H36-C4=1.0877        H37-C4=1.0872        H38-C4=1.0859        H39-C6=1.0867        H40-C6=1.0851        
H41-C6=1.0872        H42-C7=1.0859        H43-C7=1.0875        H44-C7=1.0871        H45-C11=1.0842       H46-C20=1.0873       
H47-C20=1.0866       H48-C20=1.0853       H49-C21=1.0876       H50-C21=1.0873       H51-C21=1.0859       H52-C23=1.0859       
H53-C23=1.0876       H54-C23=1.0871       H55-C24=1.0867       H56-C24=1.0850       H57-C24=1.0870       H58-C26=1.0814       
H59-C29=1.0807       H60-C30=1.0845       
 C  H  Rav=1.0858 sigma=0.0025  Rmin=1.0793  Rmax=1.0914    32
 C  B  Rav=1.5567 sigma=0.0045  Rmin=1.5522  Rmax=1.5612     2
 C  C  Rav=1.5057 sigma=0.0977  Rmin=1.3358  Rmax=1.8274    22
 O  B  Rav=1.3686 sigma=0.0015  Rmin=1.3660  Rmax=1.3699     4
 O  C  Rav=1.4268 sigma=0.0008  Rmin=1.4257  Rmax=1.4277     4

 selected bond angles (degree)
 --------------------
H33-C1-C2=108.89               H34-C1-C2=110.23               H34-C1-H33=108.88              H35-C1-C2=111.22               
H35-C1-H33=108.03              H35-C1-H34=109.53              O3-C2-C1=109.54                C4-C2-C1=109.07                
C4-C2-O3=106.82                C5-C2-C1=114.95                C5-C2-O3=103.11                C5-C2-C4=112.87                
B9-O3-C2=108.82                H36-C4-C2=108.48               H37-C4-C2=110.18               H37-C4-H36=107.95              
H38-C4-C2=111.27               H38-C4-H36=109.01              H38-C4-H37=109.87              C6-C5-C2=114.93                
C7-C5-C2=112.88                C7-C5-C6=109.07                O8-C5-C2=103.14                O8-C5-C6=109.45                
O8-C5-C7=106.90                H39-C6-C5=110.28               H40-C6-C5=111.16               H40-C6-H39=109.57              
H41-C6-C5=108.87               H41-C6-H39=108.90              H41-C6-H40=108.00              H42-C7-C5=111.26               
H43-C7-C5=108.46               H43-C7-H42=109.02              H44-C7-C5=110.21               H44-C7-H42=109.86              
H44-C7-H43=107.95              B9-O8-C5=108.79                O8-B9-O3=112.02                C10-B9-O3=123.99               
C10-B9-O8=123.97               C11-C10-B9=119.93              C27-C10-B9=117.72              C27-C10-C11=122.25             

 selected dihedral angles (degree)
 ---------------------------------
O3-C2-C1-H33=294.57           O3-C2-C1-H34=175.20           O3-C2-C1-H35= 53.51           C4-C2-C1-H33= 51.17           
C4-C2-C1-H34=291.79           C4-C2-C1-H35=170.10           C5-C2-C1-H33=179.07           C5-C2-C1-H34= 59.70           
C5-C2-C1-H35=298.01           B9-O3-C2-C1=220.42            B9-O3-C2-C4=102.42            B9-O3-C2-C5=343.26            
H36-C4-C2-C1=299.55           H36-C4-C2-O3= 57.86           H36-C4-C2-C5=170.48           H37-C4-C2-C1=181.57           
H37-C4-C2-O3=299.88           H37-C4-C2-C5= 52.51           H38-C4-C2-C1= 59.45           H38-C4-C2-O3=177.77           
H38-C4-C2-C5=290.39           C6-C5-C2-C1=258.21            C6-C5-C2-O3=139.05            C6-C5-C2-C4= 24.17            
C7-C5-C2-C1= 24.16            C7-C5-C2-O3=265.01            C7-C5-C2-C4=150.13            O8-C5-C2-C1=139.16            
O8-C5-C2-O3= 20.01            O8-C5-C2-C4=265.13            H39-C6-C5-C2= 59.63           H39-C6-C5-C7=291.73           
H39-C6-C5-O8=175.09           H40-C6-C5-C2=297.90           H40-C6-C5-C7=170.00           H40-C6-C5-O8= 53.36           
H41-C6-C5-C2=179.05           H41-C6-C5-C7= 51.15           H41-C6-C5-O8=294.51           H42-C7-C5-C2=290.47           
H42-C7-C5-C6= 59.51           H42-C7-C5-O8=177.76           H43-C7-C5-C2=170.57           H43-C7-C5-C6=299.61           
H43-C7-C5-O8= 57.86           H44-C7-C5-C2= 52.58           H44-C7-C5-C6=181.63           H44-C7-C5-O8=299.87           
B9-O8-C5-C2=343.53            B9-O8-C5-C6=220.75            B9-O8-C5-C7=102.75            O8-B9-O3-C2=  7.34            
C10-B9-O3-C2=188.63           O3-B9-O8-C5=  6.87            C10-B9-O8-C5=185.58           C11-C10-B9-O3=185.87          
C11-C10-B9-O8=  7.32          C27-C10-B9-O3=  2.26          C27-C10-B9-O8=183.71          
           -------------------------------------------------
          |                Final Singlepoint                |
           -------------------------------------------------

          ...................................................
          :                      SETUP                      :
          :.................................................:
          :  # basis functions                 144          :
          :  # atomic orbitals                 144          :
          :  # shells                           88          :
          :  # electrons                       150          :
          :  max. iterations                   250          :
          :  Hamiltonian                  GFN2-xTB          :
          :  restarted?                      false          :
          :  GBSA solvation                  false          :
          :  PC potential                    false          :
          :  electronic temp.          300.0000000     K    :
          :  accuracy                    1.0000000          :
          :  -> integral cutoff          0.2500000E+02      :
          :  -> integral neglect         0.1000000E-07      :
          :  -> SCF convergence          0.1000000E-05 Eh   :
          :  -> wf. convergence          0.1000000E-03 e    :
          :  Broyden damping             0.4000000          :
          ...................................................

 iter      E             dE          RMSdq      gap      omega  full diag
   1    -83.3780936 -0.833781E+02  0.644E-05    2.88       0.0  T
   2    -83.3780936 -0.994760E-12  0.488E-05    2.88     264.6  T
   3    -83.3780936 -0.667200E-10  0.297E-05    2.88     434.2  T

   *** convergence criteria satisfied after 3 iterations ***

         #    Occupation            Energy/Eh            Energy/eV
      -------------------------------------------------------------
         1        2.0000           -0.6880052             -18.7216
       ...           ...                  ...                  ...
        69        2.0000           -0.4049186             -11.0184
        70        2.0000           -0.3976500             -10.8206
        71        2.0000           -0.3945506             -10.7363
        72        2.0000           -0.3938669             -10.7177
        73        2.0000           -0.3900819             -10.6147
        74        2.0000           -0.3577623              -9.7352
        75        2.0000           -0.3391310              -9.2282 (HOMO)
        76                         -0.2333841              -6.3507 (LUMO)
        77                         -0.2179750              -5.9314
        78                         -0.1896153              -5.1597
        79                         -0.1118373              -3.0432
        80                         -0.0982753              -2.6742
       ...                                ...                  ...
       144                          0.6790568              18.4781
      -------------------------------------------------------------
                  HL-Gap            0.1057469 Eh            2.8775 eV
             Fermi-level           -0.2862576 Eh           -7.7895 eV

 SCC (total)                   0 d,  0 h,  0 min,  0.040 sec
 SCC setup                      ...        0 min,  0.000 sec (  0.528%)
 Dispersion                     ...        0 min,  0.000 sec (  0.847%)
 classical contributions        ...        0 min,  0.000 sec (  0.407%)
 integral evaluation            ...        0 min,  0.006 sec ( 13.971%)
 iterations                     ...        0 min,  0.008 sec ( 19.248%)
 molecular gradient             ...        0 min,  0.026 sec ( 64.272%)
 printout                       ...        0 min,  0.000 sec (  0.721%)

         :::::::::::::::::::::::::::::::::::::::::::::::::::::
         ::                     SUMMARY                     ::
         :::::::::::::::::::::::::::::::::::::::::::::::::::::
         :: total energy             -82.302771654170 Eh    ::
         :: gradient norm              0.000687748464 Eh/a0 ::
         :: HOMO-LUMO gap              2.877518618264 eV    ::
         ::.................................................::
         :: SCC energy               -83.378093633247 Eh    ::
         :: -> isotropic ES            0.147520890695 Eh    ::
         :: -> anisotropic ES          0.012600617637 Eh    ::
         :: -> anisotropic XC          0.026966146834 Eh    ::
         :: -> dispersion             -0.061265508387 Eh    ::
         :: repulsion energy           1.074309336226 Eh    ::
         :: add. restraining           0.000252825763 Eh    ::
         :: total charge              -0.000000000000 e     ::
         :::::::::::::::::::::::::::::::::::::::::::::::::::::

           -------------------------------------------------
          |                Property Printout                |
           -------------------------------------------------

    * Orbital Energies and Occupations

         #    Occupation            Energy/Eh            Energy/eV
      -------------------------------------------------------------
         1        2.0000           -0.6880052             -18.7216
       ...           ...                  ...                  ...
        63        2.0000           -0.4362624             -11.8713
        64        2.0000           -0.4310917             -11.7306
        65        2.0000           -0.4271474             -11.6233
        66        2.0000           -0.4200641             -11.4305
        67        2.0000           -0.4184554             -11.3868
        68        2.0000           -0.4126867             -11.2298
        69        2.0000           -0.4049186             -11.0184
        70        2.0000           -0.3976500             -10.8206
        71        2.0000           -0.3945506             -10.7363
        72        2.0000           -0.3938669             -10.7177
        73        2.0000           -0.3900819             -10.6147
        74        2.0000           -0.3577623              -9.7352
        75        2.0000           -0.3391310              -9.2282 (HOMO)
        76                         -0.2333841              -6.3507 (LUMO)
        77                         -0.2179750              -5.9314
        78                         -0.1896153              -5.1597
        79                         -0.1118373              -3.0432
        80                         -0.0982753              -2.6742
        81                         -0.0679819              -1.8499
        82                          0.0084809               0.2308
        83                          0.0137285               0.3736
        84                          0.0284828               0.7751
        85                          0.0312953               0.8516
        86                          0.0565092               1.5377
       ...                                ...                  ...
       144                          0.6790568              18.4781
      -------------------------------------------------------------
                  HL-Gap            0.1057469 Eh            2.8775 eV
             Fermi-level           -0.2862576 Eh           -7.7895 eV

     #   Z          covCN         q      C6AA      α(0)
     1   6 C        3.755    -0.117    22.789     6.807
     2   6 C        3.859     0.129    18.450     6.109
     3   8 O        1.638    -0.373    20.349     6.089
     4   6 C        3.755    -0.116    22.768     6.804
     5   6 C        3.859     0.129    18.448     6.108
     6   6 C        3.755    -0.117    22.795     6.808
     7   6 C        3.755    -0.116    22.767     6.804
     8   8 O        1.638    -0.375    20.388     6.095
     9   5 B        2.659     0.431    15.577     6.645
    10   6 C        2.884    -0.088    30.208     9.011
    11   6 C        2.894    -0.032    28.796     8.798
    12   6 C        3.690    -0.021    21.133     6.579
    13   1 H        0.926     0.032     2.557     2.501
    14   6 C        3.863    -0.007    20.663     6.464
    15   1 H        0.925     0.047     2.358     2.401
    16   6 C        2.863    -0.086    30.144     8.999
    17   5 B        2.662     0.431    15.559     6.639
    18   8 O        1.638    -0.373    20.348     6.089
    19   6 C        3.860     0.129    18.455     6.109
    20   6 C        3.755    -0.117    22.800     6.808
    21   6 C        3.755    -0.116    22.781     6.806
    22   6 C        3.860     0.129    18.455     6.109
    23   6 C        3.755    -0.117    22.786     6.806
    24   6 C        3.755    -0.118    22.808     6.810
    25   8 O        1.638    -0.370    20.281     6.079
    26   6 C        2.900    -0.024    28.608     8.770
    27   6 C        3.862    -0.016    20.822     6.489
    28   1 H        0.924     0.046     2.376     2.411
    29   6 C        2.910    -0.035    28.872     8.811
    30   6 C        2.889    -0.039    28.956     8.822
    31   6 C        3.692    -0.018    21.071     6.568
    32   1 H        0.926     0.032     2.560     2.502
    33   1 H        0.925     0.054     2.274     2.358
    34   1 H        0.925     0.039     2.466     2.456
    35   1 H        0.925     0.051     2.305     2.374
    36   1 H        0.925     0.052     2.300     2.372
    37   1 H        0.925     0.043     2.407     2.426
    38   1 H        0.925     0.041     2.430     2.438
    39   1 H        0.925     0.039     2.461     2.453
    40   1 H        0.925     0.052     2.301     2.372
    41   1 H        0.925     0.053     2.277     2.360
    42   1 H        0.925     0.042     2.425     2.435
    43   1 H        0.925     0.051     2.305     2.374
    44   1 H        0.925     0.043     2.409     2.427
    45   1 H        0.925     0.036     2.507     2.476
    46   1 H        0.925     0.054     2.269     2.356
    47   1 H        0.925     0.040     2.450     2.448
    48   1 H        0.925     0.052     2.295     2.369
    49   1 H        0.925     0.052     2.296     2.370
    50   1 H        0.925     0.044     2.399     2.422
    51   1 H        0.925     0.043     2.415     2.430
    52   1 H        0.925     0.043     2.411     2.428
    53   1 H        0.925     0.053     2.286     2.364
    54   1 H        0.925     0.044     2.398     2.422
    55   1 H        0.925     0.040     2.448     2.447
    56   1 H        0.925     0.052     2.292     2.367
    57   1 H        0.925     0.055     2.261     2.351
    58   1 H        0.925     0.037     2.485     2.465
    59   1 H        0.926     0.027     2.636     2.539
    60   1 H        0.925     0.024     2.668     2.554

 Mol. C6AA /au·bohr⁶  :      32816.529033
 Mol. C8AA /au·bohr⁸  :     759922.268040
 Mol. α(0) /au        :        273.303501


Wiberg/Mayer (AO) data.
largest (>0.10) Wiberg bond orders for each atom

 ---------------------------------------------------------------------------
     #   Z sym  total        # sym  WBO       # sym  WBO       # sym  WBO
 ---------------------------------------------------------------------------
     1   6 C    3.994 --     2 C    0.996    34 H    0.985    33 H    0.983
                            35 H    0.982
     2   6 C    3.944 --     1 C    0.996     4 C    0.990     3 O    0.955
                             5 C    0.936
     3   8 O    2.226 --     9 B    1.120     2 C    0.955
     4   6 C    3.994 --     2 C    0.990    38 H    0.985    37 H    0.984
                            36 H    0.983
     5   6 C    3.943 --     6 C    0.996     7 C    0.990     8 O    0.955
                             2 C    0.936
     6   6 C    3.994 --     5 C    0.996    39 H    0.985    41 H    0.983
                            40 H    0.982
     7   6 C    3.995 --     5 C    0.990    42 H    0.985    44 H    0.984
                            43 H    0.983
     8   8 O    2.224 --     9 B    1.120     5 C    0.955
     9   5 B    3.380 --     3 O    1.120     8 O    1.120    10 C    1.016
    10   6 C    3.970 --    11 C    1.682     9 B    1.016    27 C    0.955
    11   6 C    3.990 --    10 C    1.682    12 C    1.214    45 H    0.961
    12   6 C    3.937 --    11 C    1.214    13 H    0.975    14 C    0.927
                            31 C    0.651
    13   1 H    0.999 --    12 C    0.975
    14   6 C    3.974 --    16 C    1.025    15 H    0.967    31 C    0.948
                            12 C    0.927
    15   1 H    0.997 --    14 C    0.967
    16   6 C    3.977 --    26 C    1.831    14 C    1.025    17 B    0.998
    17   5 B    3.376 --    25 O    1.134    18 O    1.127    16 C    0.998
    18   8 O    2.232 --    17 B    1.127    19 C    0.952
    19   6 C    3.943 --    20 C    0.997    21 C    0.991    18 O    0.952
                            22 C    0.937
    20   6 C    3.994 --    19 C    0.997    47 H    0.984    46 H    0.983
                            48 H    0.982
    21   6 C    3.994 --    19 C    0.991    51 H    0.984    50 H    0.984
                            49 H    0.983
    22   6 C    3.942 --    24 C    0.996    23 C    0.991    25 O    0.952
                            19 C    0.937
    23   6 C    3.995 --    22 C    0.991    52 H    0.984    54 H    0.984
                            53 H    0.983
    24   6 C    3.994 --    22 C    0.996    55 H    0.984    57 H    0.983
                            56 H    0.982
    25   8 O    2.237 --    17 B    1.134    22 C    0.952
    26   6 C    3.986 --    16 C    1.831    27 C    1.003    58 H    0.967
    27   6 C    3.994 --    26 C    1.003    29 C    0.981    28 H    0.971
                            10 C    0.955
    28   1 H    0.998 --    27 C    0.971
    29   6 C    3.983 --    30 C    1.762    27 C    0.981    59 H    0.971
    30   6 C    3.991 --    29 C    1.762    31 C    1.182    60 H    0.963
    31   6 C    3.929 --    30 C    1.182    32 H    0.975    14 C    0.948
                            12 C    0.651
    32   1 H    0.999 --    31 C    0.975
    33   1 H    0.997 --     1 C    0.983
    34   1 H    0.998 --     1 C    0.985
    35   1 H    0.997 --     1 C    0.982
    36   1 H    0.997 --     4 C    0.983
    37   1 H    0.998 --     4 C    0.984
    38   1 H    0.998 --     4 C    0.985
    39   1 H    0.998 --     6 C    0.985
    40   1 H    0.997 --     6 C    0.982
    41   1 H    0.997 --     6 C    0.983
    42   1 H    0.998 --     7 C    0.985
    43   1 H    0.997 --     7 C    0.983
    44   1 H    0.998 --     7 C    0.984
    45   1 H    0.999 --    11 C    0.961
    46   1 H    0.997 --    20 C    0.983
    47   1 H    0.998 --    20 C    0.984
    48   1 H    0.997 --    20 C    0.982
    49   1 H    0.997 --    21 C    0.983
    50   1 H    0.998 --    21 C    0.984
    51   1 H    0.998 --    21 C    0.984
    52   1 H    0.998 --    23 C    0.984
    53   1 H    0.997 --    23 C    0.983
    54   1 H    0.998 --    23 C    0.984
    55   1 H    0.998 --    24 C    0.984
    56   1 H    0.997 --    24 C    0.982
    57   1 H    0.997 --    24 C    0.983
    58   1 H    0.998 --    26 C    0.967
    59   1 H    0.999 --    29 C    0.971
    60   1 H    0.999 --    30 C    0.963
 ---------------------------------------------------------------------------

Topologies differ in total number of bonds
Writing topology from bond orders to xtbtopo.mol

molecular dipole:
                 x           y           z       tot (Debye)
 q only:       -0.242      -0.439       0.321
   full:       -0.126      -0.533       0.290       1.574
molecular quadrupole (traceless):
                xx          xy          yy          xz          yz          zz
 q only:      -53.866      19.625      42.430     -23.177     -51.135      11.435
  q+dip:      -57.495       9.327      53.529     -15.586     -51.796       3.966
   full:      -58.272       8.190      55.076     -17.344     -52.944       3.196

           -------------------------------------------------
          |                Geometry Summary                 |
           -------------------------------------------------

      molecular mass/u    :      382.1099696
   center of mass at/Å    :        2.9620026     -35.8861297      21.8179016
  moments of inertia/u·Å² :        0.1411982E+04   0.6373377E+04   0.6824785E+04
rotational constants/cm⁻¹ :        0.1193898E-01   0.2645008E-02   0.2470061E-02

 * 57 selected distances

     #   Z          #   Z                                           value/Å
     1   6 C        2   6 C                                       1.5271854
     2   6 C        3   8 O                                       1.4256726
     2   6 C        4   6 C                                       1.5342885
     5   6 C        6   6 C                                       1.5271814
     5   6 C        7   6 C                                       1.5341527
     5   6 C        8   8 O                                       1.4264720
     3   8 O        9   5 B                                       1.3696894
     8   8 O        9   5 B                                       1.3698597
     9   5 B       10   6 C                                       1.5521980
    10   6 C       11   6 C                                       1.3543691
    11   6 C       12   6 C                                       1.4233470
    12   6 C       13   1 H                                       1.0793019 (min)
    12   6 C       14   6 C                                       1.5107300
    14   6 C       15   1 H                                       1.0870513
    16   6 C       17   5 B                                       1.5611739 (max)
    17   5 B       18   8 O                                       1.3686625
    18   8 O       19   6 C                                       1.4271751
    19   6 C       20   6 C                                       1.5271058
    19   6 C       21   6 C                                       1.5344072
    22   6 C       23   6 C                                       1.5339613
    22   6 C       24   6 C                                       1.5270254
    17   5 B       25   8 O                                       1.3660305
    22   6 C       25   8 O                                       1.4276948
    16   6 C       26   6 C                                       1.3357692
    27   6 C       28   1 H                                       1.0913987
    29   6 C       30   6 C                                       1.3399738
    14   6 C       31   6 C                                       1.5025570
    30   6 C       31   6 C                                       1.4300117
    31   6 C       32   1 H                                       1.0796202
     1   6 C       33   1 H                                       1.0872638
     1   6 C       34   1 H                                       1.0867278
     1   6 C       35   1 H                                       1.0851926
     4   6 C       36   1 H                                       1.0876959
     4   6 C       37   1 H                                       1.0872336
     4   6 C       38   1 H                                       1.0858747
     6   6 C       39   1 H                                       1.0867085
     6   6 C       40   1 H                                       1.0851037
     6   6 C       41   1 H                                       1.0871952
     7   6 C       42   1 H                                       1.0859317
     7   6 C       43   1 H                                       1.0875392
     7   6 C       44   1 H                                       1.0871224
    11   6 C       45   1 H                                       1.0841543
    20   6 C       46   1 H                                       1.0873329
    20   6 C       47   1 H                                       1.0866348
    20   6 C       48   1 H                                       1.0853255
    21   6 C       49   1 H                                       1.0876355
    21   6 C       50   1 H                                       1.0872807
    21   6 C       51   1 H                                       1.0858503
    23   6 C       52   1 H                                       1.0858935
    23   6 C       53   1 H                                       1.0876477
    23   6 C       54   1 H                                       1.0870716
    24   6 C       55   1 H                                       1.0866829
    24   6 C       56   1 H                                       1.0849976
    24   6 C       57   1 H                                       1.0869742
    26   6 C       58   1 H                                       1.0814106
    29   6 C       59   1 H                                       1.0806989
    30   6 C       60   1 H                                       1.0844537

 * 5 distinct bonds (by element types)

   Z      Z             #   av. dist./Å        max./Å        min./Å
   1 H    6 C          32     1.0858439     1.0913987     1.0793019
   5 B    6 C           2     1.5566860     1.5611739     1.5521980
   6 C    6 C          15     1.4761377     1.5344072     1.3357692
   5 B    8 O           4     1.3685605     1.3698597     1.3660305
   6 C    8 O           4     1.4267536     1.4276948     1.4256726


optimized geometry written to: xtbopt.xyz


           -------------------------------------------------
          | TOTAL ENERGY              -82.302771654170 Eh   |
          | GRADIENT NORM               0.000687748464 Eh/α |
          | HOMO-LUMO GAP               2.877518618264 eV   |
           -------------------------------------------------

------------------------------------------------------------------------
 * finished run on 2022/07/09 at 18:33:02.056     
------------------------------------------------------------------------
 total:
 * wall-time:     0 d,  0 h,  0 min,  2.668 sec
 *  cpu-time:     0 d,  0 h,  0 min,  2.665 sec
 * ratio c/w:     0.999 speedup
 SCF:
 * wall-time:     0 d,  0 h,  0 min,  0.069 sec
 *  cpu-time:     0 d,  0 h,  0 min,  0.069 sec
 * ratio c/w:     1.000 speedup
 ANC optimizer:
 * wall-time:     0 d,  0 h,  0 min,  2.588 sec
 *  cpu-time:     0 d,  0 h,  0 min,  2.585 sec
 * ratio c/w:     0.999 speedup

