      -----------------------------------------------------------      
     |                   =====================                   |     
     |                           x T B                           |     
     |                   =====================                   |     
     |                         S. Grimme                         |     
     |          Mulliken Center for Theoretical Chemistry        |     
     |                    University of Bonn                     |     
      -----------------------------------------------------------      

   * xtb version 6.5.0 (homebrew) compiled by 'nhattrup@GPGGRP-SHANNON.CHEME.CMU.EDU' on 

   xtb is free software: you can redistribute it and/or modify it under
   the terms of the GNU Lesser General Public License as published by
   the Free Software Foundation, either version 3 of the License, or
   (at your option) any later version.
   
   xtb is distributed in the hope that it will be useful,
   but WITHOUT ANY WARRANTY; without even the implied warranty of
   MERCHANTABILITY or FITNESS FOR A PARTICULAR PURPOSE.  See the
   GNU Lesser General Public License for more details.
   
   Cite this work as:
   * C. Bannwarth, E. Caldeweyher, S. Ehlert, A. Hansen, P. Pracht,
     J. Seibert, S. Spicher, S. Grimme, WIREs Comput. Mol. Sci., 2020, 11,
     e01493. DOI: 10.1002/wcms.1493
   
   for GFN2-xTB:
   * C. Bannwarth, S. Ehlert and S. Grimme., J. Chem. Theory Comput., 2019,
     15, 1652-1671. DOI: 10.1021/acs.jctc.8b01176
   for GFN1-xTB:
   * S. Grimme, C. Bannwarth, P. Shushkov, J. Chem. Theory Comput., 2017,
     13, 1989-2009. DOI: 10.1021/acs.jctc.7b00118
   for GFN0-xTB:
   * P. Pracht, E. Caldeweyher, S. Ehlert, S. Grimme, ChemRxiv, 2019, preprint.
     DOI: 10.26434/chemrxiv.8326202.v1
   for GFN-FF:
   * S. Spicher and S. Grimme, Angew. Chem. Int. Ed., 2020, 59, 15665-15673.
     DOI: 10.1002/anie.202004239
   
   for ALPB and GBSA implicit solvation:
   * S. Ehlert, M. Stahn, S. Spicher, S. Grimme, J. Chem. Theory Comput.,
     2021, 17, 4250-4261. DOI: 10.1021/acs.jctc.1c00471
   
   for DFT-D4:
   * E. Caldeweyher, C. Bannwarth and S. Grimme, J. Chem. Phys., 2017,
     147, 034112. DOI: 10.1063/1.4993215
   * E. Caldeweyher, S. Ehlert, A. Hansen, H. Neugebauer, S. Spicher,
     C. Bannwarth and S. Grimme, J. Chem. Phys., 2019, 150, 154122.
     DOI: 10.1063/1.5090222
   * E. Caldeweyher, J.-M. Mewes, S. Ehlert and S. Grimme, Phys. Chem. Chem. Phys.
     2020, 22, 8499-8512. DOI: 10.1039/D0CP00502A
   
   for sTDA-xTB:
   * S. Grimme and C. Bannwarth, J. Chem. Phys., 2016, 145, 054103.
     DOI: 10.1063/1.4959605
   
   in the mass-spec context:
   * V. Asgeirsson, C. Bauer and S. Grimme, Chem. Sci., 2017, 8, 4879.
     DOI: 10.1039/c7sc00601b
   * J. Koopman and S. Grimme, ACS Omega 2019, 4, 12, 15120-15133.
     DOI: 10.1021/acsomega.9b02011
   
   for metadynamics refer to:
   * S. Grimme, J. Chem. Theory Comput., 2019, 155, 2847-2862
     DOI: 10.1021/acs.jctc.9b00143
   
   for SPH calculations refer to:
   * S. Spicher and S. Grimme, J. Chem. Theory Comput., 2021, 17, 1701-1714
     DOI: 10.1021/acs.jctc.0c01306
   
   with help from (in alphabetical order)
   P. Atkinson, C. Bannwarth, F. Bohle, G. Brandenburg, E. Caldeweyher
   M. Checinski, S. Dohm, S. Ehlert, S. Ehrlich, I. Gerasimov, C. Hölzer
   A. Katbashev, J. Koopman, C. Lavigne, S. Lehtola, F. März, M. Müller,
   F. Musil, H. Neugebauer, J. Pisarek, C. Plett, P. Pracht, F. Pultar,
   J. Seibert, P. Shushkov, S. Spicher, M. Stahn, M. Steiner, T. Strunk,
   J. Stückrath, T. Rose, and J. Unsleber
   
 * started run on 2022/07/09 at 18:33:00.473     

           -------------------------------------------------
          |                Calculation Setup                |
           -------------------------------------------------

          program call               : /opt/homebrew/bin/xtb bvl_bpin2_scan_0-4_xtb.xyz --chrg 0 --uhf 0 --opt --input xcontrol_bvl_bpin2_scan_0-4_xtb
          coordinate file            : bvl_bpin2_scan_0-4_xtb.xyz
          omp threads                :                     1

   ID    Z sym.   atoms
    1    6 C      1, 2, 4-7, 10-12, 14, 16, 19-24, 26, 27, 29-31
    2    8 O      3, 8, 18, 25
    3    5 B      9, 17
    4    1 H      13, 15, 28, 32-60
constraining bond 12 31 to    1.5000000 Å, actual value:    1.5028897 Å
constraining bond 10 29 to    2.0556000 Å, actual value:    2.1701322 Å

           -------------------------------------------------
          |                 G F N 2 - x T B                 |
           -------------------------------------------------

        Reference                      10.1021/acs.jctc.8b01176
      * Hamiltonian:
        H0-scaling (s, p, d)           1.850000    2.230000    2.230000
        zeta-weighting                 0.500000
      * Dispersion:
        s8                             2.700000
        a1                             0.520000
        a2                             5.000000
        s9                             5.000000
      * Repulsion:
        kExp                           1.500000    1.000000
        rExp                           1.000000
      * Coulomb:
        alpha                          2.000000
        third order                    shell-resolved
        anisotropic                    true
        a3                             3.000000
        a5                             4.000000
        cn-shift                       1.200000
        cn-exp                         4.000000
        max-rad                        5.000000


          ...................................................
          :                      SETUP                      :
          :.................................................:
          :  # basis functions                 144          :
          :  # atomic orbitals                 144          :
          :  # shells                           88          :
          :  # electrons                       150          :
          :  max. iterations                   250          :
          :  Hamiltonian                  GFN2-xTB          :
          :  restarted?                      false          :
          :  GBSA solvation                  false          :
          :  PC potential                    false          :
          :  electronic temp.          300.0000000     K    :
          :  accuracy                    1.0000000          :
          :  -> integral cutoff          0.2500000E+02      :
          :  -> integral neglect         0.1000000E-07      :
          :  -> SCF convergence          0.1000000E-05 Eh   :
          :  -> wf. convergence          0.1000000E-03 e    :
          :  Broyden damping             0.4000000          :
          ...................................................

 iter      E             dE          RMSdq      gap      omega  full diag
   1    -82.9742817 -0.829743E+02  0.467E+00    3.42       0.0  T
   2    -83.3562727 -0.381991E+00  0.287E+00    2.95       1.0  T
   3    -83.3686165 -0.123438E-01  0.136E+00    3.31       1.0  T
   4    -83.3904458 -0.218293E-01  0.416E-01    3.15       1.0  T
   5    -83.4014800 -0.110343E-01  0.169E-01    3.21       1.0  T
   6    -83.4017811 -0.301063E-03  0.117E-01    3.23       1.0  T
   7    -83.4021679 -0.386782E-03  0.290E-02    3.21       1.0  T
   8    -83.4021937 -0.257745E-04  0.882E-03    3.22       1.5  T
   9    -83.4021947 -0.106074E-05  0.460E-03    3.21       2.8  T
  10    -83.4021950 -0.284204E-06  0.243E-03    3.21       5.3  T
  11    -83.4021952 -0.175869E-06  0.545E-04    3.21      23.7  T
  12    -83.4021952 -0.925874E-08  0.255E-04    3.21      50.7  T

   *** convergence criteria satisfied after 12 iterations ***

         #    Occupation            Energy/Eh            Energy/eV
      -------------------------------------------------------------
         1        2.0000           -0.6879008             -18.7187
       ...           ...                  ...                  ...
        69        2.0000           -0.4066096             -11.0644
        70        2.0000           -0.3981959             -10.8355
        71        2.0000           -0.3972362             -10.8093
        72        2.0000           -0.3963181             -10.7844
        73        2.0000           -0.3838052             -10.4439
        74        2.0000           -0.3618209              -9.8456
        75        2.0000           -0.3402680              -9.2592 (HOMO)
        76                         -0.2221239              -6.0443 (LUMO)
        77                         -0.2129338              -5.7942
        78                         -0.1837923              -5.0012
        79                         -0.1020235              -2.7762
        80                         -0.0916686              -2.4944
       ...                                ...                  ...
       144                          0.6891850              18.7537
      -------------------------------------------------------------
                  HL-Gap            0.1181440 Eh            3.2149 eV
             Fermi-level           -0.2811960 Eh           -7.6517 eV

 SCC (total)                   0 d,  0 h,  0 min,  0.067 sec
 SCC setup                      ...        0 min,  0.000 sec (  0.351%)
 Dispersion                     ...        0 min,  0.000 sec (  0.662%)
 classical contributions        ...        0 min,  0.000 sec (  0.263%)
 integral evaluation            ...        0 min,  0.006 sec (  9.024%)
 iterations                     ...        0 min,  0.032 sec ( 48.239%)
 molecular gradient             ...        0 min,  0.028 sec ( 40.949%)
 printout                       ...        0 min,  0.000 sec (  0.503%)

         :::::::::::::::::::::::::::::::::::::::::::::::::::::
         ::                     SUMMARY                     ::
         :::::::::::::::::::::::::::::::::::::::::::::::::::::
         :: total energy             -82.220385364458 Eh    ::
         :: gradient norm              1.188202346629 Eh/a0 ::
         :: HOMO-LUMO gap              3.214863112706 eV    ::
         ::.................................................::
         :: SCC energy               -83.402195188903 Eh    ::
         :: -> isotropic ES            0.147172497894 Eh    ::
         :: -> anisotropic ES          0.012023803925 Eh    ::
         :: -> anisotropic XC          0.026533954316 Eh    ::
         :: -> dispersion             -0.061552535320 Eh    ::
         :: repulsion energy           1.087328810656 Eh    ::
         :: add. restraining           0.093747347120 Eh    ::
         :: total charge              -0.000000000000 e     ::
         :::::::::::::::::::::::::::::::::::::::::::::::::::::

      ----------------------------------------------------------- 
     |                   =====================                   |
     |                        A N C O P T                        |
     |                   =====================                   |
     |               Approximate Normal Coordinate               |
     |                Rational Function Optimizer                |
      ----------------------------------------------------------- 

          ...................................................
          :                      SETUP                      :
          :.................................................:
          :   optimization level            normal          :
          :   max. optcycles                   200          :
          :   ANC micro-cycles                  20          :
          :   degrees of freedom               174          :
          :.................................................:
          :   RF solver                   davidson          :
          :   write xtbopt.log                true          :
          :   linear?                        false          :
          :   energy convergence         0.5000000E-05 Eh   :
          :   grad. convergence          0.1000000E-02 Eh/α :
          :   maximium RF displ.         1.0000000          :
          :   Hlow (freq-cutoff)         0.1000000E-01      :
          :   Hmax (freq-cutoff)         5.0000000          :
          :   S6 in model hess.         20.0000000          :
          ...................................................

generating ANC from model Hessian ...
Using Lindh-Hessian (1995)
 Shifting diagonal of input Hessian by    9.9039327311598521E-003
 Lowest  eigenvalues of input Hessian
    0.000000    0.000000    0.000000    0.000000    0.000000    0.000000
    0.010000    0.010038    0.010164    0.011379    0.011606    0.012514
    0.013158    0.013231    0.014069    0.015076    0.015313    0.015776
 Highest eigenvalues
    1.729452    1.882731    1.918962    2.108469    8.721462    9.392172


........................................................................
.............................. CYCLE    1 ..............................
........................................................................
   1    -83.4021952 -0.834022E+02  0.160E-04    3.21       0.0  T
   2    -83.4021952 -0.145485E-08  0.101E-04    3.21     128.2  T
   3    -83.4021952 -0.661842E-09  0.314E-05    3.21     411.8  T
     SCC iter.                  ...        0 min,  0.008 sec
     gradient                   ...        0 min,  0.028 sec
 * total energy  :   -82.2203854 Eh     change       -0.1104397E-08 Eh
   gradient norm :     1.1882019 Eh/α   predicted     0.0000000E+00 (-100.00%)
   displ. norm   :     0.2384288 α      lambda       -0.2726761E+00
   maximum displ.:     0.2245174 α      in ANC's #174, #127, #163, ...

........................................................................
.............................. CYCLE    2 ..............................
........................................................................
   1    -83.3829055 -0.833829E+02  0.261E-01    3.00       0.0  T
   2    -83.3828976  0.789124E-05  0.221E-01    2.99       1.0  T
   3    -83.3844006 -0.150303E-02  0.110E-01    3.00       1.0  T
   4    -83.3844234 -0.227287E-04  0.399E-02    3.00       1.0  T
   5    -83.3845051 -0.817062E-04  0.458E-03    3.00       2.8  T
   6    -83.3845056 -0.571710E-06  0.232E-03    3.00       5.6  T
   7    -83.3845057 -0.559901E-07  0.646E-04    3.00      20.0  T
   8    -83.3845057 -0.563850E-08  0.358E-04    3.00      36.0  T
     SCC iter.                  ...        0 min,  0.022 sec
     gradient                   ...        0 min,  0.028 sec
 * total energy  :   -82.2760205 Eh     change       -0.5563517E-01 Eh
   gradient norm :     0.7168365 Eh/α   predicted    -0.1440886E+00 ( 158.99%)
   displ. norm   :     0.1051606 α      lambda       -0.6109685E-01
   maximum displ.:     0.0841951 α      in ANC's #174, #27, #41, ...

........................................................................
.............................. CYCLE    3 ..............................
........................................................................
   1    -83.3939612 -0.833940E+02  0.118E-01    3.06       0.0  T
   2    -83.3939557  0.558530E-05  0.103E-01    3.06       1.0  T
   3    -83.3942881 -0.332470E-03  0.499E-02    3.06       1.0  T
   4    -83.3942889 -0.755980E-06  0.176E-02    3.06       1.0  T
   5    -83.3943046 -0.156824E-04  0.253E-03    3.06       5.1  T
   6    -83.3943048 -0.198173E-06  0.122E-03    3.06      10.6  T
   7    -83.3943048 -0.117494E-07  0.400E-04    3.06      32.2  T
   8    -83.3943048 -0.519020E-08  0.163E-04    3.06      79.3  T
     SCC iter.                  ...        0 min,  0.022 sec
     gradient                   ...        0 min,  0.028 sec
 * total energy  :   -82.3070931 Eh     change       -0.3107259E-01 Eh
   gradient norm :     0.0151097 Eh/α   predicted    -0.3088638E-01 (  -0.60%)
   displ. norm   :     0.1509990 α      lambda       -0.7850560E-03
   maximum displ.:     0.0722876 α      in ANC's #27, #28, #6, ...

........................................................................
.............................. CYCLE    4 ..............................
........................................................................
   1    -83.3955217 -0.833955E+02  0.683E-02    3.05       0.0  T
   2    -83.3955233 -0.157896E-05  0.407E-02    3.05       1.0  T
   3    -83.3955119  0.113646E-04  0.140E-02    3.05       1.0  T
   4    -83.3955242 -0.123095E-04  0.224E-03    3.05       5.8  T
   5    -83.3955245 -0.240331E-06  0.798E-04    3.05      16.2  T
   6    -83.3955245 -0.435503E-08  0.535E-04    3.05      24.1  T
     SCC iter.                  ...        0 min,  0.016 sec
     gradient                   ...        0 min,  0.028 sec
 * total energy  :   -82.3076334 Eh     change       -0.5402814E-03 Eh
   gradient norm :     0.0083015 Eh/α   predicted    -0.3823094E-03 ( -29.24%)
   displ. norm   :     0.1768004 α      lambda       -0.8718445E-03
   maximum displ.:     0.0768217 α      in ANC's #27, #6, #28, ...

........................................................................
.............................. CYCLE    5 ..............................
........................................................................
   1    -83.3958780 -0.833959E+02  0.696E-02    3.04       0.0  T
   2    -83.3958799 -0.188959E-05  0.414E-02    3.04       1.0  T
   3    -83.3958616  0.182902E-04  0.178E-02    3.04       1.0  T
   4    -83.3958816 -0.199531E-04  0.238E-03    3.04       5.4  T
   5    -83.3958818 -0.264834E-06  0.877E-04    3.04      14.7  T
   6    -83.3958818 -0.108586E-07  0.545E-04    3.04      23.7  T
     SCC iter.                  ...        0 min,  0.016 sec
     gradient                   ...        0 min,  0.028 sec
 * total energy  :   -82.3078750 Eh     change       -0.2416363E-03 Eh
   gradient norm :     0.0070468 Eh/α   predicted    -0.2200879E-03 (  -8.92%)
   displ. norm   :     0.0769828 α      lambda       -0.1922048E-03
   maximum displ.:     0.0451120 α      in ANC's #6, #1, #17, ...

........................................................................
.............................. CYCLE    6 ..............................
........................................................................
   1    -83.3960931 -0.833961E+02  0.226E-02    3.04       0.0  T
   2    -83.3960933 -0.178935E-06  0.136E-02    3.04       1.0  T
   3    -83.3960926  0.726516E-06  0.348E-03    3.04       3.7  T
   4    -83.3960934 -0.776445E-06  0.767E-04    3.04      16.8  T
   5    -83.3960934 -0.294076E-07  0.274E-04    3.04      47.1  T
     SCC iter.                  ...        0 min,  0.014 sec
     gradient                   ...        0 min,  0.028 sec
 * total energy  :   -82.3079183 Eh     change       -0.4326428E-04 Eh
   gradient norm :     0.0058666 Eh/α   predicted    -0.3271467E-04 ( -24.38%)
   displ. norm   :     0.0966382 α      lambda       -0.2162757E-03
   maximum displ.:     0.0597568 α      in ANC's #6, #1, #5, ...

........................................................................
.............................. CYCLE    7 ..............................
........................................................................
   1    -83.3962022 -0.833962E+02  0.243E-02    3.03       0.0  T
   2    -83.3962023 -0.621356E-07  0.148E-02    3.03       1.0  T
   3    -83.3962020  0.337860E-06  0.254E-03    3.03       5.1  T
   4    -83.3962023 -0.360541E-06  0.542E-04    3.03      23.8  T
   5    -83.3962023 -0.103228E-07  0.231E-04    3.03      56.0  T
     SCC iter.                  ...        0 min,  0.014 sec
     gradient                   ...        0 min,  0.028 sec
 * total energy  :   -82.3079555 Eh     change       -0.3719226E-04 Eh
   gradient norm :     0.0022346 Eh/α   predicted    -0.2759279E-04 ( -25.81%)
   displ. norm   :     0.0794359 α      lambda       -0.1533125E-03
   maximum displ.:     0.0446049 α      in ANC's #1, #6, #5, ...

........................................................................
.............................. CYCLE    8 ..............................
........................................................................
   1    -83.3959677 -0.833960E+02  0.177E-02    3.03       0.0  T
   2    -83.3959677 -0.532432E-07  0.108E-02    3.03       1.2  T
   3    -83.3959666  0.105851E-05  0.409E-03    3.03       3.2  T
   4    -83.3959678 -0.113428E-05  0.492E-04    3.03      26.2  T
   5    -83.3959678 -0.907143E-08  0.232E-04    3.03      55.6  T
   6    -83.3959678 -0.103572E-08  0.117E-04    3.03     110.0  T
     SCC iter.                  ...        0 min,  0.016 sec
     gradient                   ...        0 min,  0.028 sec
 * total energy  :   -82.3079773 Eh     change       -0.2181465E-04 Eh
   gradient norm :     0.0018939 Eh/α   predicted    -0.1562533E-04 ( -28.37%)
   displ. norm   :     0.0933094 α      lambda       -0.1042996E-03
   maximum displ.:     0.0640891 α      in ANC's #1, #6, #14, ...

........................................................................
.............................. CYCLE    9 ..............................
........................................................................
   1    -83.3954867 -0.833955E+02  0.184E-02    3.03       0.0  T
   2    -83.3954868 -0.139321E-06  0.113E-02    3.03       1.1  T
   3    -83.3954852  0.155504E-05  0.530E-03    3.03       2.4  T
   4    -83.3954870 -0.171439E-05  0.617E-04    3.03      20.9  T
   5    -83.3954870 -0.150539E-07  0.293E-04    3.03      44.0  T
   6    -83.3954870 -0.211286E-08  0.158E-04    3.03      81.7  T
     SCC iter.                  ...        0 min,  0.016 sec
     gradient                   ...        0 min,  0.028 sec
 * total energy  :   -82.3079926 Eh     change       -0.1532858E-04 Eh
   gradient norm :     0.0015464 Eh/α   predicted    -0.8848676E-05 ( -42.27%)
   displ. norm   :     0.0386243 α      lambda       -0.4938581E-04
   maximum displ.:     0.0312317 α      in ANC's #1, #2, #14, ...

........................................................................
.............................. CYCLE   10 ..............................
........................................................................
   1    -83.3954547 -0.833955E+02  0.515E-03    3.03       0.0  T
   2    -83.3954548 -0.114645E-07  0.312E-03    3.04       4.1  T
   3    -83.3954546  0.156641E-06  0.187E-03    3.03       6.9  T
   4    -83.3954548 -0.178865E-06  0.201E-04    3.04      64.3  T
   5    -83.3954548 -0.167253E-08  0.960E-05    3.04     134.5  T
     SCC iter.                  ...        0 min,  0.014 sec
     gradient                   ...        0 min,  0.028 sec
 * total energy  :   -82.3080017 Eh     change       -0.9087591E-05 Eh
   gradient norm :     0.0008196 Eh/α   predicted    -0.3628088E-05 ( -60.08%)
   displ. norm   :     0.0666424 α      lambda       -0.7679395E-04
   maximum displ.:     0.0516734 α      in ANC's #1, #6, #2, ...

........................................................................
.............................. CYCLE   11 ..............................
........................................................................
   1    -83.3955685 -0.833956E+02  0.796E-03    3.04       0.0  T
   2    -83.3955685 -0.201021E-07  0.479E-03    3.04       2.7  T
   3    -83.3955681  0.364337E-06  0.257E-03    3.04       5.0  T
   4    -83.3955685 -0.401225E-06  0.288E-04    3.04      44.8  T
   5    -83.3955685 -0.338466E-08  0.123E-04    3.04     104.6  T
     SCC iter.                  ...        0 min,  0.014 sec
     gradient                   ...        0 min,  0.028 sec
 * total energy  :   -82.3080138 Eh     change       -0.1206943E-04 Eh
   gradient norm :     0.0009027 Eh/α   predicted    -0.4931674E-05 ( -59.14%)
   displ. norm   :     0.0710113 α      lambda       -0.7009343E-04
   maximum displ.:     0.0537531 α      in ANC's #1, #6, #2, ...

........................................................................
.............................. CYCLE   12 ..............................
........................................................................
   1    -83.3957067 -0.833957E+02  0.769E-03    3.04       0.0  T
   2    -83.3957067 -0.180889E-07  0.458E-03    3.04       2.8  T
   3    -83.3957066  0.871212E-07  0.120E-03    3.04      10.8  T
   4    -83.3957067 -0.955685E-07  0.257E-04    3.04      50.3  T
   5    -83.3957067 -0.247948E-08  0.116E-04    3.04     111.6  T
     SCC iter.                  ...        0 min,  0.014 sec
     gradient                   ...        0 min,  0.028 sec
 * total energy  :   -82.3080245 Eh     change       -0.1074280E-04 Eh
   gradient norm :     0.0010291 Eh/α   predicted    -0.3992809E-05 ( -62.83%)
   displ. norm   :     0.0890612 α      lambda       -0.9440903E-04
   maximum displ.:     0.0661951 α      in ANC's #1, #2, #6, ...

........................................................................
.............................. CYCLE   13 ..............................
........................................................................
   1    -83.3958278 -0.833958E+02  0.955E-03    3.04       0.0  T
   2    -83.3958279 -0.212345E-07  0.569E-03    3.04       2.3  T
   3    -83.3958278  0.460539E-07  0.103E-03    3.04      12.5  T
   4    -83.3958279 -0.527226E-07  0.257E-04    3.04      50.3  T
   5    -83.3958279 -0.197288E-08  0.130E-04    3.04      99.6  T
     SCC iter.                  ...        0 min,  0.014 sec
     gradient                   ...        0 min,  0.028 sec
 * total energy  :   -82.3080377 Eh     change       -0.1313161E-04 Eh
   gradient norm :     0.0010056 Eh/α   predicted    -0.4843330E-05 ( -63.12%)
   displ. norm   :     0.1071677 α      lambda       -0.1341083E-03
   maximum displ.:     0.0805635 α      in ANC's #1, #2, #6, ...

........................................................................
.............................. CYCLE   14 ..............................
........................................................................
   1    -83.3958720 -0.833959E+02  0.114E-02    3.04       0.0  T
   2    -83.3958720 -0.192919E-07  0.680E-03    3.04       1.9  T
   3    -83.3958719  0.940355E-07  0.135E-03    3.04       9.6  T
   4    -83.3958720 -0.104595E-06  0.273E-04    3.04      47.4  T
   5    -83.3958720 -0.187602E-08  0.137E-04    3.04      94.5  T
     SCC iter.                  ...        0 min,  0.014 sec
     gradient                   ...        0 min,  0.028 sec
 * total energy  :   -82.3080531 Eh     change       -0.1545377E-04 Eh
   gradient norm :     0.0008051 Eh/α   predicted    -0.5736383E-05 ( -62.88%)
   displ. norm   :     0.1237561 α      lambda       -0.1679260E-03
   maximum displ.:     0.0931612 α      in ANC's #1, #2, #4, ...

........................................................................
.............................. CYCLE   15 ..............................
........................................................................
   1    -83.3958662 -0.833959E+02  0.133E-02    3.04       0.0  T
   2    -83.3958662 -0.185050E-07  0.794E-03    3.04       1.6  T
   3    -83.3958660  0.243025E-06  0.198E-03    3.04       6.5  T
   4    -83.3958663 -0.265345E-06  0.299E-04    3.04      43.2  T
   5    -83.3958663 -0.105807E-08  0.185E-04    3.04      69.6  T
     SCC iter.                  ...        0 min,  0.014 sec
     gradient                   ...        0 min,  0.028 sec
 * total energy  :   -82.3080696 Eh     change       -0.1649250E-04 Eh
   gradient norm :     0.0005745 Eh/α   predicted    -0.6163998E-05 ( -62.63%)
   displ. norm   :     0.1294490 α      lambda       -0.1774455E-03
   maximum displ.:     0.0970484 α      in ANC's #1, #2, #4, ...

........................................................................
.............................. CYCLE   16 ..............................
........................................................................
   1    -83.3957956 -0.833958E+02  0.138E-02    3.03       0.0  T
   2    -83.3957956 -0.171189E-07  0.826E-03    3.03       1.6  T
   3    -83.3957954  0.241386E-06  0.197E-03    3.04       6.5  T
   4    -83.3957956 -0.265014E-06  0.301E-04    3.03      42.9  T
   5    -83.3957956 -0.491269E-09  0.210E-04    3.03      61.5  T
     SCC iter.                  ...        0 min,  0.014 sec
     gradient                   ...        0 min,  0.028 sec
 * total energy  :   -82.3080851 Eh     change       -0.1544054E-04 Eh
   gradient norm :     0.0005448 Eh/α   predicted    -0.5694116E-05 ( -63.12%)
   displ. norm   :     0.1250797 α      lambda       -0.1741668E-03
   maximum displ.:     0.0930962 α      in ANC's #1, #2, #3, ...

........................................................................
.............................. CYCLE   17 ..............................
........................................................................
   1    -83.3957185 -0.833957E+02  0.127E-02    3.03       0.0  T
   2    -83.3957185 -0.151402E-07  0.763E-03    3.03       1.7  T
   3    -83.3957184  0.181177E-06  0.175E-03    3.03       7.4  T
   4    -83.3957186 -0.200587E-06  0.258E-04    3.03      50.0  T
   5    -83.3957186  0.258353E-10  0.180E-04    3.03      71.6  T
     SCC iter.                  ...        0 min,  0.014 sec
     gradient                   ...        0 min,  0.028 sec
 * total energy  :   -82.3080989 Eh     change       -0.1383936E-04 Eh
   gradient norm :     0.0005141 Eh/α   predicted    -0.4962738E-05 ( -64.14%)
   displ. norm   :     0.1223674 α      lambda       -0.1730363E-03
   maximum displ.:     0.0901746 α      in ANC's #1, #2, #3, ...

........................................................................
.............................. CYCLE   18 ..............................
........................................................................
   1    -83.3956381 -0.833956E+02  0.117E-02    3.03       0.0  T
   2    -83.3956381 -0.146650E-07  0.706E-03    3.03       1.8  T
   3    -83.3956380  0.123614E-06  0.152E-03    3.03       8.5  T
   4    -83.3956381 -0.138634E-06  0.225E-04    3.03      57.4  T
   5    -83.3956381 -0.209255E-09  0.126E-04    3.03     102.7  T
     SCC iter.                  ...        0 min,  0.014 sec
     gradient                   ...        0 min,  0.028 sec
 * total energy  :   -82.3081121 Eh     change       -0.1316625E-04 Eh
   gradient norm :     0.0005773 Eh/α   predicted    -0.4661768E-05 ( -64.59%)
   displ. norm   :     0.1273403 α      lambda       -0.1968956E-03
   maximum displ.:     0.0928355 α      in ANC's #1, #2, #3, ...

........................................................................
.............................. CYCLE   19 ..............................
........................................................................
   1    -83.3955678 -0.833956E+02  0.117E-02    3.03       0.0  T
   2    -83.3955678 -0.171306E-07  0.705E-03    3.03       1.8  T
   3    -83.3955678  0.813323E-07  0.129E-03    3.03      10.0  T
   4    -83.3955678 -0.929602E-07  0.236E-04    3.03      54.8  T
   5    -83.3955678 -0.564810E-09  0.129E-04    3.03      99.9  T
     SCC iter.                  ...        0 min,  0.014 sec
     gradient                   ...        0 min,  0.028 sec
 * total energy  :   -82.3081255 Eh     change       -0.1342121E-04 Eh
   gradient norm :     0.0006502 Eh/α   predicted    -0.4801783E-05 ( -64.22%)
   displ. norm   :     0.1405816 α      lambda       -0.2310137E-03
   maximum displ.:     0.1016667 α      in ANC's #1, #2, #3, ...

........................................................................
.............................. CYCLE   20 ..............................
........................................................................
   1    -83.3955065 -0.833955E+02  0.127E-02    3.03       0.0  T
   2    -83.3955065 -0.250360E-07  0.761E-03    3.03       1.7  T
   3    -83.3955064  0.116909E-06  0.151E-03    3.03       8.5  T
   4    -83.3955065 -0.132702E-06  0.260E-04    3.03      49.7  T
   5    -83.3955065 -0.101569E-08  0.147E-04    3.03      87.9  T
     SCC iter.                  ...        0 min,  0.014 sec
     gradient                   ...        0 min,  0.028 sec
 * total energy  :   -82.3081396 Eh     change       -0.1410391E-04 Eh
   gradient norm :     0.0004709 Eh/α   predicted    -0.5155703E-05 ( -63.44%)
   displ. norm   :     0.1527710 α      lambda       -0.2547374E-03
   maximum displ.:     0.1100189 α      in ANC's #1, #2, #3, ...
 * RMSD in coord.:     0.2028364 α      energy gain  -0.8775422E-01 Eh

generating ANC from model Hessian ...
Using Lindh-Hessian (1995)
 Shifting diagonal of input Hessian by    9.9002933214971563E-003
 Lowest  eigenvalues of input Hessian
    0.000000    0.000000    0.000000    0.000000    0.000000    0.000000
    0.010000    0.010036    0.010133    0.010842    0.011391    0.012003
    0.012358    0.013216    0.013232    0.014434    0.015009    0.015195
 Highest eigenvalues
    1.729969    1.858466    1.922860    1.929049    8.728906    9.389747


........................................................................
.............................. CYCLE   21 ..............................
........................................................................
   1    -83.3954509 -0.833955E+02  0.136E-02    3.03       0.0  T
   2    -83.3954510 -0.294679E-07  0.813E-03    3.03       1.6  T
   3    -83.3954509  0.109018E-06  0.151E-03    3.03       8.6  T
   4    -83.3954510 -0.125355E-06  0.285E-04    3.03      45.3  T
   5    -83.3954510 -0.118968E-08  0.158E-04    3.03      81.7  T
     SCC iter.                  ...        0 min,  0.014 sec
     gradient                   ...        0 min,  0.028 sec
 * total energy  :   -82.3081538 Eh     change       -0.1423788E-04 Eh
   gradient norm :     0.0004528 Eh/α   predicted     0.0000000E+00 (-100.00%)
   displ. norm   :     0.0209785 α      lambda       -0.2237417E-05
   maximum displ.:     0.0168647 α      in ANC's #1, #4, #6, ...

........................................................................
.............................. CYCLE   22 ..............................
........................................................................
   1    -83.3957327 -0.833957E+02  0.289E-03    3.03       0.0  T
   2    -83.3957327 -0.377545E-08  0.173E-03    3.03       7.5  T
   3    -83.3957327  0.731427E-08  0.409E-04    3.03      31.6  T
   4    -83.3957327 -0.819844E-08  0.914E-05    3.03     141.2  T
     SCC iter.                  ...        0 min,  0.011 sec
     gradient                   ...        0 min,  0.028 sec
 * total energy  :   -82.3081573 Eh     change       -0.3453958E-05 Eh
   gradient norm :     0.0003803 Eh/α   predicted    -0.1295488E-05 ( -62.49%)
   displ. norm   :     0.0519935 α      lambda       -0.5157372E-05
   maximum displ.:     0.0367099 α      in ANC's #1, #4, #6, ...

   *** GEOMETRY OPTIMIZATION CONVERGED AFTER 22 ITERATIONS ***

------------------------------------------------------------------------
 total energy gain   :        -0.0877719 Eh      -55.0777 kcal/mol
 total RMSD          :         0.2042642 a0        0.1081 Å
 total power (kW/mol):       -10.4747787 (step) -197.1080 (real)
------------------------------------------------------------------------

 ANCopt (total)                0 d,  0 h,  0 min,  1.169 sec
 optimizer setup                ...        0 min,  0.000 sec (  0.008%)
 model hessian                  ...        0 min,  0.064 sec (  5.454%)
 ANC generation                 ...        0 min,  0.005 sec (  0.459%)
 coordinate transformation      ...        0 min,  0.000 sec (  0.029%)
 single point calculation       ...        0 min,  1.090 sec ( 93.273%)
 optimization log               ...        0 min,  0.005 sec (  0.398%)
 hessian update                 ...        0 min,  0.001 sec (  0.043%)
 rational function              ...        0 min,  0.003 sec (  0.260%)

================
 final structure:
================
60
 xtb: 6.5.0 (homebrew)
C            3.34109133228062      -37.92835754857690       16.06056652481157
C            3.64959026604329      -38.22195446849882       17.52705690616221
O            3.21892054059678      -37.12577892875180       18.33172311689365
C            2.83888161215636      -39.44484341662402       17.97490836946676
C            5.17924404480513      -38.33925004569941       17.87323442200512
C            5.69027386919652      -39.76715958184266       18.05218088660799
C            6.07831200083325      -37.60732423656676       16.86896332560983
O            5.28639343730233      -37.63836059945911       19.11284919331715
B            4.16028881702145      -36.88623672171571       19.29441830543792
C            3.95653984438465      -35.87031160256726       20.46332428854637
C            4.97343115815469      -35.66279549384172       21.33286712670547
C            5.04458351879065      -34.63660915925144       22.35753659672536
H            5.98032397712382      -34.64456561635963       22.90752893395598
C            3.85976144124720      -34.09413331784680       23.12106937804568
H            4.09986420110704      -33.74881396390219       24.11936465221189
C            2.51610447513309      -34.70623623407464       23.06038178084810
B            1.73370991725124      -34.82491461187922       24.40694401234062
O            2.22270482309399      -34.40320044935289       25.61322607062403
C            1.34950487792242      -34.85934057177539       26.64589365210358
C            1.18555933036822      -33.76545801207849       27.69833547069108
C            2.02411101804009      -36.07800881786522       27.28886749191260
C            0.03753126793260      -35.23011830912180       25.86356739066395
C           -0.99013498459836      -34.09150382060715       25.84819200359410
C           -0.64667312176669      -36.51477896856456       26.32583992191304
O            0.49714723856662      -35.39417984858446       24.52239003257027
C            1.98382963669323      -35.19487625838214       21.93774842909446
C            2.60788657103881      -35.23313190918354       20.58631420764925
H            1.91840605388658      -35.68521558031142       19.87466971419125
C            3.20827157834489      -34.00222969932450       20.02419387966117
C            3.94114348342916      -33.09469909367979       20.68569438573088
C            4.48644290844560      -33.28097275131356       22.02345281213299
H            5.07297876511399      -32.43409556488375       22.36647149998261
H            2.26274545662742      -37.87757063350951       15.93149718471759
H            3.73394818385996      -38.71979589603759       15.42814792632897
H            3.76141365485516      -36.97624267806628       15.75337514881471
H            1.78148937499120      -39.22013930598992       17.85457318847989
H            3.02000762393283      -39.65097840358788       19.02678840302903
H            3.08437526564157      -40.31923298065777       17.37988269273944
H            5.53770006116595      -40.33828602729962       17.14043498732860
H            5.19078745966606      -40.26172448366652       18.87877806089242
H            6.75411204771419      -39.73469478865483       18.27348987006629
H            6.07546864858808      -38.10467418514848       15.90374565733331
H            7.09334524460033      -37.59686848874457       17.25927694065662
H            5.75314643187444      -36.57640648576358       16.75420439513418
H            5.90035600540740      -36.18323965093634       21.13026321770108
H            2.14283689911844      -33.59998574798566       28.18645177088444
H            0.45800732879318      -34.07037505725797       28.44570633415004
H            0.87194601761950      -32.82977620130094       27.24715450096036
H            3.00043114025137      -35.77563164379365       27.66081740468884
H            2.17512998854640      -36.85773585488557       26.54653447804769
H            1.43477766829092      -36.46395060190950       28.11513332086017
H           -1.41749116031448      -33.93464341794332       26.83405311407711
H           -1.78543675936997      -34.35455298473964       25.15463695317001
H           -0.52813515543978      -33.17299111944934       25.49526511965497
H           -0.92189620133000      -36.43864497273626       27.37429147117613
H           -0.00235946251377      -37.37575109288766       26.18074264601782
H           -1.54702139311208      -36.66539314260374       25.73547102537429
H            0.99858923712603      -35.63525937280922       22.00211437438115
H            2.99202711729997      -33.81389714699952       18.97913303823871
H            4.33736537615801      -32.24913243215739       20.13807199289873

 Bond Distances (Angstroems)
 ---------------------------
C1-C2=1.5271         C1-H33=1.0872        C1-H34=1.0866        C1-H35=1.0852        C2-C1=1.5271         C2-O3=1.4264         
C2-C4=1.5340         C2-C5=1.5727         O3-C2=1.4264         O3-B9=1.3676         C4-C2=1.5340         C4-H36=1.0877        
C4-H37=1.0871        C4-H38=1.0858        C5-C2=1.5727         C5-C6=1.5271         C5-C7=1.5338         C5-O8=1.4281         
C6-C5=1.5271         C6-H39=1.0866        C6-H40=1.0851        C6-H41=1.0871        C7-C5=1.5338         C7-H42=1.0858        
C7-H43=1.0875        C7-H44=1.0871        O8-C5=1.4281         O8-B9=1.3663         B9-O3=1.3676         B9-O8=1.3663         
B9-C10=1.5620        C10-B9=1.5620        C10-C11=1.3540       C10-C27=1.4967       C11-C10=1.3540       C11-C12=1.4519       
C11-H45=1.0822       C12-C11=1.4519       C12-H13=1.0854       C12-C14=1.5103       C12-C31=1.5036       H13-C12=1.0854       
C14-C12=1.5103       C14-H15=1.0833       C14-C16=1.4778       C14-C31=1.5029       H15-C14=1.0833       C16-C14=1.4778       
C16-B17=1.5619       C16-C26=1.3351       B17-C16=1.5619       B17-O18=1.3682       B17-O25=1.3662       O18-B17=1.3682       
O18-C19=1.4272       C19-O18=1.4272       C19-C20=1.5268       C19-C21=1.5342       C19-C22=1.5719       C20-C19=1.5268       
C20-H46=1.0872       C20-H47=1.0867       C20-H48=1.0851       C21-C19=1.5342       C21-H49=1.0876       C21-H50=1.0871       
C21-H51=1.0858       C22-C19=1.5719       C22-C23=1.5339       C22-C24=1.5271       C22-O25=1.4272       C23-C22=1.5339       
C23-H52=1.0859       C23-H53=1.0875       C23-H54=1.0870       C24-C22=1.5271       C24-H55=1.0866       C24-H56=1.0851       
C24-H57=1.0871       O25-B17=1.3662       O25-C22=1.4272       C26-C16=1.3351       C26-C27=1.4891       C26-H58=1.0811       
C27-C10=1.4967       C27-C26=1.4891       C27-H28=1.0891       C27-C29=1.4804       H28-C27=1.0891       C29-C27=1.4804       
C29-C30=1.3410       C29-H59=1.0837       C30-C29=1.3410       C30-C31=1.4566       C30-H60=1.0825       C31-C12=1.5036       
C31-C14=1.5029       C31-C30=1.4566       C31-H32=1.0858       H32-C31=1.0858       H33-C1=1.0872        H34-C1=1.0866        
H35-C1=1.0852        H36-C4=1.0877        H37-C4=1.0871        H38-C4=1.0858        H39-C6=1.0866        H40-C6=1.0851        
H41-C6=1.0871        H42-C7=1.0858        H43-C7=1.0875        H44-C7=1.0871        H45-C11=1.0822       H46-C20=1.0872       
H47-C20=1.0867       H48-C20=1.0851       H49-C21=1.0876       H50-C21=1.0871       H51-C21=1.0858       H52-C23=1.0859       
H53-C23=1.0875       H54-C23=1.0870       H55-C24=1.0866       H56-C24=1.0851       H57-C24=1.0871       H58-C26=1.0811       
H59-C29=1.0837       H60-C30=1.0825       
 C  H  Rav=1.0860 sigma=0.0018  Rmin=1.0811  Rmax=1.0891    32
 C  B  Rav=1.5620 sigma=0.0001  Rmin=1.5619  Rmax=1.5620     2
 C  C  Rav=1.4904 sigma=0.0657  Rmin=1.3351  Rmax=1.5727    22
 O  B  Rav=1.3671 sigma=0.0009  Rmin=1.3662  Rmax=1.3682     4
 O  C  Rav=1.4272 sigma=0.0006  Rmin=1.4264  Rmax=1.4281     4

 selected bond angles (degree)
 --------------------
H33-C1-C2=108.87               H34-C1-C2=110.23               H34-C1-H33=108.88              H35-C1-C2=111.24               
H35-C1-H33=108.03              H35-C1-H34=109.53              O3-C2-C1=109.45                C4-C2-C1=109.08                
C4-C2-O3=106.76                C5-C2-C1=114.97                C5-C2-O3=103.11                C5-C2-C4=112.97                
B9-O3-C2=108.90                H36-C4-C2=108.47               H37-C4-C2=110.22               H37-C4-H36=107.95              
H38-C4-C2=111.25               H38-C4-H36=109.00              H38-C4-H37=109.87              C6-C5-C2=114.90                
C7-C5-C2=112.98                C7-C5-C6=109.07                O8-C5-C2=103.15                O8-C5-C6=109.40                
O8-C5-C7=106.87                H39-C6-C5=110.25               H40-C6-C5=111.19               H40-C6-H39=109.57              
H41-C6-C5=108.87               H41-C6-H39=108.90              H41-C6-H40=108.00              H42-C7-C5=111.22               
H43-C7-C5=108.46               H43-C7-H42=109.02              H44-C7-C5=110.26               H44-C7-H42=109.86              
H44-C7-H43=107.94              B9-O8-C5=108.89                O8-B9-O3=112.17                C10-B9-O3=123.43               
C10-B9-O8=124.40               C11-C10-B9=118.84              C27-C10-B9=117.12              C27-C10-C11=123.97             

 selected dihedral angles (degree)
 ---------------------------------
O3-C2-C1-H33=294.93           O3-C2-C1-H34=175.57           O3-C2-C1-H35= 53.86           C4-C2-C1-H33= 51.40           
C4-C2-C1-H34=292.04           C4-C2-C1-H35=170.33           C5-C2-C1-H33=179.47           C5-C2-C1-H34= 60.11           
C5-C2-C1-H35=298.41           B9-O3-C2-C1=220.98            B9-O3-C2-C4=103.05            B9-O3-C2-C5=343.79            
H36-C4-C2-C1=299.83           H36-C4-C2-O3= 58.00           H36-C4-C2-C5=170.64           H37-C4-C2-C1=181.84           
H37-C4-C2-O3=300.02           H37-C4-C2-C5= 52.66           H38-C4-C2-C1= 59.71           H38-C4-C2-O3=177.88           
H38-C4-C2-C5=290.52           C6-C5-C2-C1=257.20            C6-C5-C2-O3=138.15            C6-C5-C2-C4= 23.29            
C7-C5-C2-C1= 23.22            C7-C5-C2-O3=264.17            C7-C5-C2-C4=149.32            O8-C5-C2-C1=138.23            
O8-C5-C2-O3= 19.18            O8-C5-C2-C4=264.32            H39-C6-C5-C2= 59.82           H39-C6-C5-C7=291.81           
H39-C6-C5-O8=175.24           H40-C6-C5-C2=298.09           H40-C6-C5-C7=170.07           H40-C6-C5-O8= 53.51           
H41-C6-C5-C2=179.23           H41-C6-C5-C7= 51.21           H41-C6-C5-O8=294.65           H42-C7-C5-C2=290.84           
H42-C7-C5-C6= 59.93           H42-C7-C5-O8=178.09           H43-C7-C5-C2=170.96           H43-C7-C5-C6=300.05           
H43-C7-C5-O8= 58.21           H44-C7-C5-C2= 52.97           H44-C7-C5-C6=182.06           H44-C7-C5-O8=300.22           
B9-O8-C5-C2=344.32            B9-O8-C5-C6=221.59            B9-O8-C5-C7=103.64            O8-B9-O3-C2=  7.28            
C10-B9-O3-C2=187.45           O3-B9-O8-C5=  6.37            C10-B9-O8-C5=186.20           C11-C10-B9-O3=182.84          
C11-C10-B9-O8=  3.03          C27-C10-B9-O3=  5.77          C27-C10-B9-O8=185.96          
           -------------------------------------------------
          |                Final Singlepoint                |
           -------------------------------------------------

          ...................................................
          :                      SETUP                      :
          :.................................................:
          :  # basis functions                 144          :
          :  # atomic orbitals                 144          :
          :  # shells                           88          :
          :  # electrons                       150          :
          :  max. iterations                   250          :
          :  Hamiltonian                  GFN2-xTB          :
          :  restarted?                      false          :
          :  GBSA solvation                  false          :
          :  PC potential                    false          :
          :  electronic temp.          300.0000000     K    :
          :  accuracy                    1.0000000          :
          :  -> integral cutoff          0.2500000E+02      :
          :  -> integral neglect         0.1000000E-07      :
          :  -> SCF convergence          0.1000000E-05 Eh   :
          :  -> wf. convergence          0.1000000E-03 e    :
          :  Broyden damping             0.4000000          :
          ...................................................

 iter      E             dE          RMSdq      gap      omega  full diag
   1    -83.3957327 -0.833957E+02  0.380E-05    3.03       0.0  T
   2    -83.3957327 -0.794387E-11  0.252E-05    3.03     511.3  T
   3    -83.3957327 -0.568434E-11  0.176E-05    3.03     735.0  T

   *** convergence criteria satisfied after 3 iterations ***

         #    Occupation            Energy/Eh            Energy/eV
      -------------------------------------------------------------
         1        2.0000           -0.6889926             -18.7484
       ...           ...                  ...                  ...
        69        2.0000           -0.4070299             -11.0758
        70        2.0000           -0.3982742             -10.8376
        71        2.0000           -0.3981236             -10.8335
        72        2.0000           -0.3961501             -10.7798
        73        2.0000           -0.3815230             -10.3818
        74        2.0000           -0.3664493              -9.9716
        75        2.0000           -0.3341261              -9.0920 (HOMO)
        76                         -0.2226335              -6.0582 (LUMO)
        77                         -0.2139648              -5.8223
        78                         -0.1771785              -4.8213
        79                         -0.1021552              -2.7798
        80                         -0.0888391              -2.4174
       ...                                ...                  ...
       144                          0.6936691              18.8757
      -------------------------------------------------------------
                  HL-Gap            0.1114926 Eh            3.0339 eV
             Fermi-level           -0.2783798 Eh           -7.5751 eV

 SCC (total)                   0 d,  0 h,  0 min,  0.043 sec
 SCC setup                      ...        0 min,  0.000 sec (  0.515%)
 Dispersion                     ...        0 min,  0.000 sec (  0.948%)
 classical contributions        ...        0 min,  0.000 sec (  0.403%)
 integral evaluation            ...        0 min,  0.006 sec ( 13.842%)
 iterations                     ...        0 min,  0.008 sec ( 19.300%)
 molecular gradient             ...        0 min,  0.028 sec ( 64.150%)
 printout                       ...        0 min,  0.000 sec (  0.828%)

         :::::::::::::::::::::::::::::::::::::::::::::::::::::
         ::                     SUMMARY                     ::
         :::::::::::::::::::::::::::::::::::::::::::::::::::::
         :: total energy             -82.308157279693 Eh    ::
         :: gradient norm              0.000379983277 Eh/a0 ::
         :: HOMO-LUMO gap              3.033867177661 eV    ::
         ::.................................................::
         :: SCC energy               -83.395732686393 Eh    ::
         :: -> isotropic ES            0.147307217414 Eh    ::
         :: -> anisotropic ES          0.011793012401 Eh    ::
         :: -> anisotropic XC          0.026357101731 Eh    ::
         :: -> dispersion             -0.061589073385 Eh    ::
         :: repulsion energy           1.086659459476 Eh    ::
         :: add. restraining           0.000215364434 Eh    ::
         :: total charge              -0.000000000000 e     ::
         :::::::::::::::::::::::::::::::::::::::::::::::::::::

           -------------------------------------------------
          |                Property Printout                |
           -------------------------------------------------

    * Orbital Energies and Occupations

         #    Occupation            Energy/Eh            Energy/eV
      -------------------------------------------------------------
         1        2.0000           -0.6889926             -18.7484
       ...           ...                  ...                  ...
        63        2.0000           -0.4375477             -11.9063
        64        2.0000           -0.4301834             -11.7059
        65        2.0000           -0.4295548             -11.6888
        66        2.0000           -0.4208103             -11.4508
        67        2.0000           -0.4190519             -11.4030
        68        2.0000           -0.4132334             -11.2447
        69        2.0000           -0.4070299             -11.0758
        70        2.0000           -0.3982742             -10.8376
        71        2.0000           -0.3981236             -10.8335
        72        2.0000           -0.3961501             -10.7798
        73        2.0000           -0.3815230             -10.3818
        74        2.0000           -0.3664493              -9.9716
        75        2.0000           -0.3341261              -9.0920 (HOMO)
        76                         -0.2226335              -6.0582 (LUMO)
        77                         -0.2139648              -5.8223
        78                         -0.1771785              -4.8213
        79                         -0.1021552              -2.7798
        80                         -0.0888391              -2.4174
        81                          0.0076395               0.2079
        82                          0.0091044               0.2477
        83                          0.0155805               0.4240
        84                          0.0278969               0.7591
        85                          0.0294674               0.8018
        86                          0.0573586               1.5608
       ...                                ...                  ...
       144                          0.6936691              18.8757
      -------------------------------------------------------------
                  HL-Gap            0.1114926 Eh            3.0339 eV
             Fermi-level           -0.2783798 Eh           -7.5751 eV

     #   Z          covCN         q      C6AA      α(0)
     1   6 C        3.755    -0.117    22.795     6.808
     2   6 C        3.859     0.129    18.453     6.109
     3   8 O        1.638    -0.372    20.321     6.085
     4   6 C        3.755    -0.116    22.779     6.805
     5   6 C        3.859     0.129    18.452     6.109
     6   6 C        3.755    -0.118    22.808     6.810
     7   6 C        3.755    -0.116    22.776     6.805
     8   8 O        1.638    -0.372    20.331     6.086
     9   5 B        2.660     0.433    15.546     6.638
    10   6 C        3.232    -0.072    28.890     8.725
    11   6 C        2.896    -0.046    29.137     8.850
    12   6 C        3.863    -0.007    20.668     6.465
    13   1 H        0.925     0.029     2.599     2.521
    14   6 C        3.864    -0.024    20.956     6.510
    15   1 H        0.925     0.040     2.443     2.444
    16   6 C        2.863    -0.083    30.076     8.989
    17   5 B        2.663     0.432    15.546     6.636
    18   8 O        1.638    -0.373    20.346     6.089
    19   6 C        3.860     0.129    18.453     6.109
    20   6 C        3.755    -0.117    22.799     6.808
    21   6 C        3.755    -0.116    22.779     6.805
    22   6 C        3.860     0.129    18.455     6.109
    23   6 C        3.755    -0.116    22.784     6.806
    24   6 C        3.755    -0.117    22.805     6.809
    25   8 O        1.638    -0.370    20.295     6.081
    26   6 C        2.898    -0.030    28.756     8.792
    27   6 C        3.866    -0.015    20.796     6.485
    28   1 H        0.925     0.044     2.393     2.419
    29   6 C        3.259    -0.019    27.316     8.446
    30   6 C        2.891    -0.056    29.382     8.887
    31   6 C        3.866    -0.006    20.636     6.460
    32   1 H        0.925     0.029     2.601     2.522
    33   1 H        0.925     0.055     2.264     2.353
    34   1 H        0.925     0.040     2.453     2.449
    35   1 H        0.925     0.052     2.301     2.372
    36   1 H        0.925     0.053     2.289     2.366
    37   1 H        0.925     0.044     2.400     2.423
    38   1 H        0.925     0.042     2.417     2.431
    39   1 H        0.925     0.040     2.445     2.445
    40   1 H        0.925     0.052     2.293     2.368
    41   1 H        0.925     0.055     2.264     2.353
    42   1 H        0.925     0.043     2.410     2.428
    43   1 H        0.925     0.052     2.290     2.366
    44   1 H        0.925     0.044     2.402     2.424
    45   1 H        0.925     0.033     2.541     2.493
    46   1 H        0.925     0.054     2.269     2.356
    47   1 H        0.925     0.040     2.453     2.449
    48   1 H        0.925     0.052     2.294     2.368
    49   1 H        0.925     0.052     2.295     2.369
    50   1 H        0.925     0.044     2.400     2.423
    51   1 H        0.925     0.042     2.417     2.431
    52   1 H        0.925     0.043     2.414     2.430
    53   1 H        0.925     0.053     2.288     2.365
    54   1 H        0.925     0.044     2.397     2.421
    55   1 H        0.925     0.040     2.451     2.448
    56   1 H        0.925     0.052     2.294     2.369
    57   1 H        0.925     0.055     2.264     2.353
    58   1 H        0.926     0.036     2.503     2.474
    59   1 H        0.925     0.026     2.650     2.546
    60   1 H        0.925     0.021     2.722     2.580

 Mol. C6AA /au·bohr⁶  :      32742.047944
 Mol. C8AA /au·bohr⁸  :     757808.707493
 Mol. α(0) /au        :        272.677756


Wiberg/Mayer (AO) data.
largest (>0.10) Wiberg bond orders for each atom

 ---------------------------------------------------------------------------
     #   Z sym  total        # sym  WBO       # sym  WBO       # sym  WBO
 ---------------------------------------------------------------------------
     1   6 C    3.994 --     2 C    0.997    34 H    0.985    33 H    0.982
                            35 H    0.982
     2   6 C    3.943 --     1 C    0.997     4 C    0.991     3 O    0.953
                             5 C    0.936
     3   8 O    2.232 --     9 B    1.128     2 C    0.953
     4   6 C    3.994 --     2 C    0.991    38 H    0.984    37 H    0.984
                            36 H    0.983
     5   6 C    3.942 --     6 C    0.997     7 C    0.991     8 O    0.952
                             2 C    0.936
     6   6 C    3.994 --     5 C    0.997    39 H    0.984    41 H    0.983
                            40 H    0.982
     7   6 C    3.995 --     5 C    0.991    42 H    0.984    44 H    0.984
                            43 H    0.983
     8   8 O    2.233 --     9 B    1.131     5 C    0.952
     9   5 B    3.378 --     8 O    1.131     3 O    1.128    10 C    0.999
    10   6 C    3.966 --    11 C    1.694     9 B    0.999    27 C    0.940
                            29 C    0.149
    11   6 C    3.987 --    10 C    1.694    12 C    1.125    45 H    0.965
    12   6 C    3.953 --    11 C    1.125    13 H    0.970    14 C    0.896
                            31 C    0.839
    13   1 H    0.999 --    12 C    0.970
    14   6 C    3.938 --    16 C    1.039    15 H    0.969    31 C    0.914
                            12 C    0.896
    15   1 H    0.998 --    14 C    0.969
    16   6 C    3.979 --    26 C    1.823    14 C    1.039    17 B    0.996
    17   5 B    3.375 --    25 O    1.133    18 O    1.127    16 C    0.996
    18   8 O    2.232 --    17 B    1.127    19 C    0.953
    19   6 C    3.943 --    20 C    0.997    21 C    0.991    18 O    0.953
                            22 C    0.937
    20   6 C    3.994 --    19 C    0.997    47 H    0.984    46 H    0.983
                            48 H    0.982
    21   6 C    3.994 --    19 C    0.991    51 H    0.984    50 H    0.984
                            49 H    0.983
    22   6 C    3.942 --    24 C    0.996    23 C    0.991    25 O    0.953
                            19 C    0.937
    23   6 C    3.995 --    22 C    0.991    52 H    0.984    54 H    0.984
                            53 H    0.983
    24   6 C    3.994 --    22 C    0.996    55 H    0.985    57 H    0.983
                            56 H    0.982
    25   8 O    2.236 --    17 B    1.133    22 C    0.953
    26   6 C    3.988 --    16 C    1.823    27 C    1.009    58 H    0.967
    27   6 C    3.986 --    26 C    1.009    28 H    0.969    29 C    0.967
                            10 C    0.940
    28   1 H    0.998 --    27 C    0.969
    29   6 C    3.980 --    30 C    1.758    59 H    0.969    27 C    0.967
                            10 C    0.149
    30   6 C    3.984 --    29 C    1.758    31 C    1.105    60 H    0.967
    31   6 C    3.949 --    30 C    1.105    32 H    0.971    14 C    0.914
                            12 C    0.839
    32   1 H    0.999 --    31 C    0.971
    33   1 H    0.997 --     1 C    0.982
    34   1 H    0.998 --     1 C    0.985
    35   1 H    0.997 --     1 C    0.982
    36   1 H    0.997 --     4 C    0.983
    37   1 H    0.998 --     4 C    0.984
    38   1 H    0.998 --     4 C    0.984
    39   1 H    0.998 --     6 C    0.984
    40   1 H    0.997 --     6 C    0.982
    41   1 H    0.997 --     6 C    0.983
    42   1 H    0.998 --     7 C    0.984
    43   1 H    0.997 --     7 C    0.983
    44   1 H    0.998 --     7 C    0.984
    45   1 H    0.999 --    11 C    0.965
    46   1 H    0.997 --    20 C    0.983
    47   1 H    0.998 --    20 C    0.984
    48   1 H    0.997 --    20 C    0.982
    49   1 H    0.997 --    21 C    0.983
    50   1 H    0.998 --    21 C    0.984
    51   1 H    0.998 --    21 C    0.984
    52   1 H    0.998 --    23 C    0.984
    53   1 H    0.997 --    23 C    0.983
    54   1 H    0.998 --    23 C    0.984
    55   1 H    0.998 --    24 C    0.985
    56   1 H    0.997 --    24 C    0.982
    57   1 H    0.997 --    24 C    0.983
    58   1 H    0.999 --    26 C    0.967
    59   1 H    0.999 --    29 C    0.969
    60   1 H    0.999 --    30 C    0.967
 ---------------------------------------------------------------------------

Topologies differ in total number of bonds
Writing topology from bond orders to xtbtopo.mol

molecular dipole:
                 x           y           z       tot (Debye)
 q only:       -0.212      -0.554       0.106
   full:       -0.128      -0.660       0.074       1.718
molecular quadrupole (traceless):
                xx          xy          yy          xz          yz          zz
 q only:      -52.962      14.811      65.473     -24.111     -35.590     -12.511
  q+dip:      -57.550       7.638      77.641     -18.724     -36.829     -20.091
   full:      -58.566       6.352      79.376     -20.235     -38.069     -20.810

           -------------------------------------------------
          |                Geometry Summary                 |
           -------------------------------------------------

      molecular mass/u    :      382.1099696
   center of mass at/Å    :        2.9566081     -35.9023549      21.8259601
  moments of inertia/u·Å² :        0.1312236E+04   0.6562719E+04   0.6976476E+04
rotational constants/cm⁻¹ :        0.1284650E-01   0.2568696E-02   0.2416353E-02

 * 61 selected distances

     #   Z          #   Z                                           value/Å
     1   6 C        2   6 C                                       1.5270773
     2   6 C        3   8 O                                       1.4263819
     2   6 C        4   6 C                                       1.5340395
     5   6 C        6   6 C                                       1.5271213
     5   6 C        7   6 C                                       1.5338186
     5   6 C        8   8 O                                       1.4280659
     3   8 O        9   5 B                                       1.3676027
     8   8 O        9   5 B                                       1.3662978
     9   5 B       10   6 C                                       1.5620369 (max)
    10   6 C       11   6 C                                       1.3539704
    11   6 C       12   6 C                                       1.4519191
    12   6 C       13   1 H                                       1.0854332
    12   6 C       14   6 C                                       1.5103199
    14   6 C       15   1 H                                       1.0832767
    14   6 C       16   6 C                                       1.4777576
    16   6 C       17   5 B                                       1.5618758
    17   5 B       18   8 O                                       1.3682381
    18   8 O       19   6 C                                       1.4272157
    19   6 C       20   6 C                                       1.5267912
    19   6 C       21   6 C                                       1.5341648
    22   6 C       23   6 C                                       1.5338767
    22   6 C       24   6 C                                       1.5271493
    17   5 B       25   8 O                                       1.3661912
    22   6 C       25   8 O                                       1.4272071
    16   6 C       26   6 C                                       1.3350624
    10   6 C       27   6 C                                       1.4966598
    27   6 C       28   1 H                                       1.0891286
    27   6 C       29   6 C                                       1.4803925
    29   6 C       30   6 C                                       1.3410057
    12   6 C       31   6 C                                       1.5036234
    14   6 C       31   6 C                                       1.5029046
    30   6 C       31   6 C                                       1.4565876
    31   6 C       32   1 H                                       1.0857658
     1   6 C       33   1 H                                       1.0872296
     1   6 C       34   1 H                                       1.0865839
     1   6 C       35   1 H                                       1.0851545
     4   6 C       36   1 H                                       1.0876815
     4   6 C       37   1 H                                       1.0870833
     4   6 C       38   1 H                                       1.0857624
     6   6 C       39   1 H                                       1.0866209
     6   6 C       40   1 H                                       1.0850549
     6   6 C       41   1 H                                       1.0870987
     7   6 C       42   1 H                                       1.0858225
     7   6 C       43   1 H                                       1.0875416
     7   6 C       44   1 H                                       1.0870574
    11   6 C       45   1 H                                       1.0821739
    20   6 C       46   1 H                                       1.0872070
    20   6 C       47   1 H                                       1.0866783
    20   6 C       48   1 H                                       1.0850891
    21   6 C       49   1 H                                       1.0876488
    21   6 C       50   1 H                                       1.0871244
    21   6 C       51   1 H                                       1.0858086
    23   6 C       52   1 H                                       1.0858917
    23   6 C       53   1 H                                       1.0875287
    23   6 C       54   1 H                                       1.0870451
    24   6 C       55   1 H                                       1.0866439
    24   6 C       56   1 H                                       1.0851113
    24   6 C       57   1 H                                       1.0871280
    26   6 C       58   1 H                                       1.0811009 (min)
    29   6 C       59   1 H                                       1.0836896
    30   6 C       60   1 H                                       1.0825273

 * 5 distinct bonds (by element types)

   Z      Z             #   av. dist./Å        max./Å        min./Å
   1 H    6 C          32     1.0859591     1.0891286     1.0811009
   5 B    6 C           2     1.5619563     1.5620369     1.5618758
   6 C    6 C          19     1.4818022     1.5341648     1.3350624
   5 B    8 O           4     1.3670824     1.3682381     1.3661912
   6 C    8 O           4     1.4272176     1.4280659     1.4263819


optimized geometry written to: xtbopt.xyz


           -------------------------------------------------
          | TOTAL ENERGY              -82.308157279693 Eh   |
          | GRADIENT NORM               0.000379983277 Eh/α |
          | HOMO-LUMO GAP               3.033867177661 eV   |
           -------------------------------------------------

------------------------------------------------------------------------
 * finished run on 2022/07/09 at 18:33:01.767     
------------------------------------------------------------------------
 total:
 * wall-time:     0 d,  0 h,  0 min,  1.294 sec
 *  cpu-time:     0 d,  0 h,  0 min,  1.292 sec
 * ratio c/w:     0.999 speedup
 SCF:
 * wall-time:     0 d,  0 h,  0 min,  0.068 sec
 *  cpu-time:     0 d,  0 h,  0 min,  0.067 sec
 * ratio c/w:     1.000 speedup
 ANC optimizer:
 * wall-time:     0 d,  0 h,  0 min,  1.214 sec
 *  cpu-time:     0 d,  0 h,  0 min,  1.212 sec
 * ratio c/w:     0.999 speedup

