      -----------------------------------------------------------      
     |                   =====================                   |     
     |                           x T B                           |     
     |                   =====================                   |     
     |                         S. Grimme                         |     
     |          Mulliken Center for Theoretical Chemistry        |     
     |                    University of Bonn                     |     
      -----------------------------------------------------------      

   * xtb version 6.5.0 (homebrew) compiled by 'nhattrup@GPGGRP-SHANNON.CHEME.CMU.EDU' on 

   xtb is free software: you can redistribute it and/or modify it under
   the terms of the GNU Lesser General Public License as published by
   the Free Software Foundation, either version 3 of the License, or
   (at your option) any later version.
   
   xtb is distributed in the hope that it will be useful,
   but WITHOUT ANY WARRANTY; without even the implied warranty of
   MERCHANTABILITY or FITNESS FOR A PARTICULAR PURPOSE.  See the
   GNU Lesser General Public License for more details.
   
   Cite this work as:
   * C. Bannwarth, E. Caldeweyher, S. Ehlert, A. Hansen, P. Pracht,
     J. Seibert, S. Spicher, S. Grimme, WIREs Comput. Mol. Sci., 2020, 11,
     e01493. DOI: 10.1002/wcms.1493
   
   for GFN2-xTB:
   * C. Bannwarth, S. Ehlert and S. Grimme., J. Chem. Theory Comput., 2019,
     15, 1652-1671. DOI: 10.1021/acs.jctc.8b01176
   for GFN1-xTB:
   * S. Grimme, C. Bannwarth, P. Shushkov, J. Chem. Theory Comput., 2017,
     13, 1989-2009. DOI: 10.1021/acs.jctc.7b00118
   for GFN0-xTB:
   * P. Pracht, E. Caldeweyher, S. Ehlert, S. Grimme, ChemRxiv, 2019, preprint.
     DOI: 10.26434/chemrxiv.8326202.v1
   for GFN-FF:
   * S. Spicher and S. Grimme, Angew. Chem. Int. Ed., 2020, 59, 15665-15673.
     DOI: 10.1002/anie.202004239
   
   for ALPB and GBSA implicit solvation:
   * S. Ehlert, M. Stahn, S. Spicher, S. Grimme, J. Chem. Theory Comput.,
     2021, 17, 4250-4261. DOI: 10.1021/acs.jctc.1c00471
   
   for DFT-D4:
   * E. Caldeweyher, C. Bannwarth and S. Grimme, J. Chem. Phys., 2017,
     147, 034112. DOI: 10.1063/1.4993215
   * E. Caldeweyher, S. Ehlert, A. Hansen, H. Neugebauer, S. Spicher,
     C. Bannwarth and S. Grimme, J. Chem. Phys., 2019, 150, 154122.
     DOI: 10.1063/1.5090222
   * E. Caldeweyher, J.-M. Mewes, S. Ehlert and S. Grimme, Phys. Chem. Chem. Phys.
     2020, 22, 8499-8512. DOI: 10.1039/D0CP00502A
   
   for sTDA-xTB:
   * S. Grimme and C. Bannwarth, J. Chem. Phys., 2016, 145, 054103.
     DOI: 10.1063/1.4959605
   
   in the mass-spec context:
   * V. Asgeirsson, C. Bauer and S. Grimme, Chem. Sci., 2017, 8, 4879.
     DOI: 10.1039/c7sc00601b
   * J. Koopman and S. Grimme, ACS Omega 2019, 4, 12, 15120-15133.
     DOI: 10.1021/acsomega.9b02011
   
   for metadynamics refer to:
   * S. Grimme, J. Chem. Theory Comput., 2019, 155, 2847-2862
     DOI: 10.1021/acs.jctc.9b00143
   
   for SPH calculations refer to:
   * S. Spicher and S. Grimme, J. Chem. Theory Comput., 2021, 17, 1701-1714
     DOI: 10.1021/acs.jctc.0c01306
   
   with help from (in alphabetical order)
   P. Atkinson, C. Bannwarth, F. Bohle, G. Brandenburg, E. Caldeweyher
   M. Checinski, S. Dohm, S. Ehlert, S. Ehrlich, I. Gerasimov, C. Hölzer
   A. Katbashev, J. Koopman, C. Lavigne, S. Lehtola, F. März, M. Müller,
   F. Musil, H. Neugebauer, J. Pisarek, C. Plett, P. Pracht, F. Pultar,
   J. Seibert, P. Shushkov, S. Spicher, M. Stahn, M. Steiner, T. Strunk,
   J. Stückrath, T. Rose, and J. Unsleber
   
 * started run on 2022/07/09 at 18:32:52.427     

           -------------------------------------------------
          |                Calculation Setup                |
           -------------------------------------------------

          program call               : /opt/homebrew/bin/xtb bvl_bpin2_scan_1-0_xtb.xyz --chrg 0 --uhf 0 --opt --input xcontrol_bvl_bpin2_scan_1-0_xtb
          coordinate file            : bvl_bpin2_scan_1-0_xtb.xyz
          omp threads                :                     2

   ID    Z sym.   atoms
    1    6 C      1, 2, 4-7, 10-12, 14, 16, 19-24, 26, 27, 29-31
    2    8 O      3, 8, 18, 25
    3    5 B      9, 17
    4    1 H      13, 15, 28, 32-60
constraining bond 12 31 to    1.6111000 Å, actual value:    1.5013715 Å
constraining bond 10 29 to    2.5000000 Å, actual value:    2.4997804 Å

           -------------------------------------------------
          |                 G F N 2 - x T B                 |
           -------------------------------------------------

        Reference                      10.1021/acs.jctc.8b01176
      * Hamiltonian:
        H0-scaling (s, p, d)           1.850000    2.230000    2.230000
        zeta-weighting                 0.500000
      * Dispersion:
        s8                             2.700000
        a1                             0.520000
        a2                             5.000000
        s9                             5.000000
      * Repulsion:
        kExp                           1.500000    1.000000
        rExp                           1.000000
      * Coulomb:
        alpha                          2.000000
        third order                    shell-resolved
        anisotropic                    true
        a3                             3.000000
        a5                             4.000000
        cn-shift                       1.200000
        cn-exp                         4.000000
        max-rad                        5.000000


          ...................................................
          :                      SETUP                      :
          :.................................................:
          :  # basis functions                 144          :
          :  # atomic orbitals                 144          :
          :  # shells                           88          :
          :  # electrons                       150          :
          :  max. iterations                   250          :
          :  Hamiltonian                  GFN2-xTB          :
          :  restarted?                      false          :
          :  GBSA solvation                  false          :
          :  PC potential                    false          :
          :  electronic temp.          300.0000000     K    :
          :  accuracy                    1.0000000          :
          :  -> integral cutoff          0.2500000E+02      :
          :  -> integral neglect         0.1000000E-07      :
          :  -> SCF convergence          0.1000000E-05 Eh   :
          :  -> wf. convergence          0.1000000E-03 e    :
          :  Broyden damping             0.4000000          :
          ...................................................

 iter      E             dE          RMSdq      gap      omega  full diag
   1    -82.9772841 -0.829773E+02  0.468E+00    3.60       0.0  T
   2    -83.3582909 -0.381007E+00  0.288E+00    3.28       1.0  T
   3    -83.3702349 -0.119440E-01  0.138E+00    3.58       1.0  T
   4    -83.3910243 -0.207894E-01  0.462E-01    3.48       1.0  T
   5    -83.4033244 -0.123000E-01  0.201E-01    3.52       1.0  T
   6    -83.4045681 -0.124374E-02  0.115E-01    3.53       1.0  T
   7    -83.4048143 -0.246220E-03  0.301E-02    3.52       1.0  T
   8    -83.4048386 -0.242681E-04  0.110E-02    3.52       1.2  T
   9    -83.4048412 -0.262380E-05  0.537E-03    3.52       2.4  T
  10    -83.4048418 -0.605341E-06  0.256E-03    3.52       5.0  T
  11    -83.4048420 -0.159415E-06  0.555E-04    3.52      23.3  T
  12    -83.4048420 -0.100953E-07  0.245E-04    3.52      52.6  T

   *** convergence criteria satisfied after 12 iterations ***

         #    Occupation            Energy/Eh            Energy/eV
      -------------------------------------------------------------
         1        2.0000           -0.6882166             -18.7273
       ...           ...                  ...                  ...
        69        2.0000           -0.4056378             -11.0380
        70        2.0000           -0.3987431             -10.8504
        71        2.0000           -0.3968148             -10.7979
        72        2.0000           -0.3959020             -10.7730
        73        2.0000           -0.3884819             -10.5711
        74        2.0000           -0.3530807              -9.6078
        75        2.0000           -0.3509132              -9.5488 (HOMO)
        76                         -0.2214662              -6.0264 (LUMO)
        77                         -0.2139982              -5.8232
        78                         -0.1905799              -5.1859
        79                         -0.1021536              -2.7797
        80                         -0.0944574              -2.5703
       ...                                ...                  ...
       144                          0.6730875              18.3156
      -------------------------------------------------------------
                  HL-Gap            0.1294470 Eh            3.5224 eV
             Fermi-level           -0.2861897 Eh           -7.7876 eV

 SCC (total)                   0 d,  0 h,  0 min,  0.092 sec
 SCC setup                      ...        0 min,  0.000 sec (  0.206%)
 Dispersion                     ...        0 min,  0.000 sec (  0.414%)
 classical contributions        ...        0 min,  0.000 sec (  0.148%)
 integral evaluation            ...        0 min,  0.003 sec (  3.672%)
 iterations                     ...        0 min,  0.071 sec ( 77.214%)
 molecular gradient             ...        0 min,  0.017 sec ( 18.036%)
 printout                       ...        0 min,  0.000 sec (  0.301%)

         :::::::::::::::::::::::::::::::::::::::::::::::::::::
         ::                     SUMMARY                     ::
         :::::::::::::::::::::::::::::::::::::::::::::::::::::
         :: total energy             -82.236116225309 Eh    ::
         :: gradient norm              1.187563116055 Eh/a0 ::
         :: HOMO-LUMO gap              3.522433220592 eV    ::
         ::.................................................::
         :: SCC energy               -83.404841983456 Eh    ::
         :: -> isotropic ES            0.147160901239 Eh    ::
         :: -> anisotropic ES          0.012378319061 Eh    ::
         :: -> anisotropic XC          0.026750739321 Eh    ::
         :: -> dispersion             -0.061169767609 Eh    ::
         :: repulsion energy           1.081918600679 Eh    ::
         :: add. restraining           0.085993971254 Eh    ::
         :: total charge              -0.000000000000 e     ::
         :::::::::::::::::::::::::::::::::::::::::::::::::::::

      ----------------------------------------------------------- 
     |                   =====================                   |
     |                        A N C O P T                        |
     |                   =====================                   |
     |               Approximate Normal Coordinate               |
     |                Rational Function Optimizer                |
      ----------------------------------------------------------- 

          ...................................................
          :                      SETUP                      :
          :.................................................:
          :   optimization level            normal          :
          :   max. optcycles                   200          :
          :   ANC micro-cycles                  20          :
          :   degrees of freedom               174          :
          :.................................................:
          :   RF solver                   davidson          :
          :   write xtbopt.log                true          :
          :   linear?                        false          :
          :   energy convergence         0.5000000E-05 Eh   :
          :   grad. convergence          0.1000000E-02 Eh/α :
          :   maximium RF displ.         1.0000000          :
          :   Hlow (freq-cutoff)         0.1000000E-01      :
          :   Hmax (freq-cutoff)         5.0000000          :
          :   S6 in model hess.         20.0000000          :
          ...................................................

generating ANC from model Hessian ...
Using Lindh-Hessian (1995)
 Shifting diagonal of input Hessian by   0.20453199616489254     
 Lowest  eigenvalues of input Hessian
    0.010000    0.117857    0.000000    0.000000    0.000000    0.000000
    0.000000    0.000000    0.204616    0.204668    0.204770    0.205925
    0.206469    0.206676    0.207801    0.207851    0.209341    0.209674
 Highest eigenvalues
    1.915935    2.077535    2.087187    2.119915    8.960954    9.608463


........................................................................
.............................. CYCLE    1 ..............................
........................................................................
   1    -83.4048420 -0.834048E+02  0.140E-04    3.52       0.0  T
   2    -83.4048420 -0.925596E-09  0.951E-05    3.52     135.8  T
   3    -83.4048420 -0.510923E-09  0.316E-05    3.52     408.4  T
     SCC iter.                  ...        0 min,  0.018 sec
     gradient                   ...        0 min,  0.017 sec
 * total energy  :   -82.2361162 Eh     change       -0.1270323E-08 Eh
   gradient norm :     1.1875636 Eh/α   predicted     0.0000000E+00 (-100.00%)
   displ. norm   :     0.2317285 α      lambda       -0.2686270E+00
   maximum displ.:     0.2246763 α      in ANC's #173, #124, #114, ...

........................................................................
.............................. CYCLE    2 ..............................
........................................................................
   1    -83.3962132 -0.833962E+02  0.196E-01    3.21       0.0  T
   2    -83.3963454 -0.132159E-03  0.114E-01    3.20       1.0  T
   3    -83.3962544  0.910086E-04  0.757E-02    3.21       1.0  T
   4    -83.3963892 -0.134801E-03  0.231E-02    3.21       1.0  T
   5    -83.3964254 -0.362078E-04  0.402E-03    3.21       3.2  T
   6    -83.3964258 -0.432723E-06  0.216E-03    3.21       6.0  T
   7    -83.3964259 -0.126602E-06  0.761E-04    3.21      17.0  T
   8    -83.3964259 -0.761423E-08  0.244E-04    3.21      53.0  T
     SCC iter.                  ...        0 min,  0.046 sec
     gradient                   ...        0 min,  0.016 sec
 * total energy  :   -82.2861999 Eh     change       -0.5008367E-01 Eh
   gradient norm :     0.7419518 Eh/α   predicted    -0.1424019E+00 ( 184.33%)
   displ. norm   :     0.0875016 α      lambda       -0.6400447E-01
   maximum displ.:     0.0859690 α      in ANC's #173, #70, #114, ...

........................................................................
.............................. CYCLE    3 ..............................
........................................................................
   1    -83.3982191 -0.833982E+02  0.835E-02    3.35       0.0  T
   2    -83.3982263 -0.723553E-05  0.512E-02    3.35       1.0  T
   3    -83.3981818  0.445307E-04  0.374E-02    3.35       1.0  T
   4    -83.3982408 -0.590605E-04  0.676E-03    3.35       1.9  T
   5    -83.3982436 -0.274647E-05  0.207E-03    3.35       6.2  T
   6    -83.3982437 -0.145397E-06  0.865E-04    3.35      14.9  T
   7    -83.3982438 -0.150703E-07  0.294E-04    3.35      44.0  T
     SCC iter.                  ...        0 min,  0.039 sec
     gradient                   ...        0 min,  0.017 sec
 * total energy  :   -82.3191514 Eh     change       -0.3295152E-01 Eh
   gradient norm :     0.0243505 Eh/α   predicted    -0.3226645E-01 (  -2.08%)
   displ. norm   :     0.0207939 α      lambda       -0.3066589E-03
   maximum displ.:     0.0061439 α      in ANC's #95, #124, #114, ...

........................................................................
.............................. CYCLE    4 ..............................
........................................................................
   1    -83.3972239 -0.833972E+02  0.142E-02    3.36       0.0  T
   2    -83.3972243 -0.441547E-06  0.938E-03    3.36       1.4  T
   3    -83.3972231  0.128064E-05  0.611E-03    3.36       2.1  T
   4    -83.3972247 -0.163523E-05  0.156E-03    3.36       8.3  T
   5    -83.3972249 -0.166147E-06  0.307E-04    3.36      42.1  T
   6    -83.3972249 -0.148188E-08  0.170E-04    3.36      76.1  T
     SCC iter.                  ...        0 min,  0.034 sec
     gradient                   ...        0 min,  0.017 sec
 * total energy  :   -82.3193811 Eh     change       -0.2296396E-03 Eh
   gradient norm :     0.0096601 Eh/α   predicted    -0.1534363E-03 ( -33.18%)
   displ. norm   :     0.0751844 α      lambda       -0.2810193E-03
   maximum displ.:     0.0665224 α      in ANC's #1, #95, #111, ...

........................................................................
.............................. CYCLE    5 ..............................
........................................................................
   1    -83.3953953 -0.833954E+02  0.498E-02    3.37       0.0  T
   2    -83.3954029 -0.758242E-05  0.296E-02    3.37       1.0  T
   3    -83.3953983  0.457780E-05  0.163E-02    3.37       1.0  T
   4    -83.3954051 -0.677210E-05  0.478E-03    3.37       2.7  T
   5    -83.3954066 -0.149476E-05  0.601E-04    3.37      21.5  T
   6    -83.3954066 -0.551221E-08  0.379E-04    3.37      34.1  T
   7    -83.3954066 -0.337434E-08  0.135E-04    3.37      95.5  T
     SCC iter.                  ...        0 min,  0.039 sec
     gradient                   ...        0 min,  0.017 sec
 * total energy  :   -82.3192431 Eh     change        0.1379164E-03 Eh
   gradient norm :     0.0125968 Eh/α   predicted    -0.1413039E-03 (-202.46%)
   displ. norm   :     0.1329619 α      lambda       -0.9549391E-03
   maximum displ.:     0.1179156 α      in ANC's #1, #95, #43, ...

........................................................................
.............................. CYCLE    6 ..............................
........................................................................
   1    -83.3927610 -0.833928E+02  0.905E-02    3.37       0.0  T
   2    -83.3927800 -0.190004E-04  0.535E-02    3.37       1.0  T
   3    -83.3927548  0.251967E-04  0.310E-02    3.37       1.0  T
   4    -83.3927858 -0.309608E-04  0.958E-03    3.37       1.3  T
   5    -83.3927920 -0.619406E-05  0.944E-04    3.37      13.7  T
   6    -83.3927920 -0.389589E-08  0.612E-04    3.37      21.1  T
   7    -83.3927920 -0.100563E-07  0.223E-04    3.37      58.0  T
     SCC iter.                  ...        0 min,  0.038 sec
     gradient                   ...        0 min,  0.017 sec
 * total energy  :   -82.3189561 Eh     change        0.2870435E-03 Eh
   gradient norm :     0.0255660 Eh/α   predicted    -0.4862289E-03 (-269.39%)
   displ. norm   :     0.0779221 α      lambda       -0.2368107E-02
   maximum displ.:     0.0437306 α      in ANC's #1, #95, #124, ...

........................................................................
.............................. CYCLE    7 ..............................
........................................................................
   1    -83.3964839 -0.833965E+02  0.533E-02    3.36       0.0  T
   2    -83.3964897 -0.581060E-05  0.336E-02    3.36       1.0  T
   3    -83.3964734  0.163159E-04  0.220E-02    3.36       1.0  T
   4    -83.3964937 -0.202828E-04  0.603E-03    3.36       2.1  T
   5    -83.3964961 -0.243611E-05  0.850E-04    3.36      15.2  T
   6    -83.3964961 -0.920555E-08  0.493E-04    3.36      26.2  T
   7    -83.3964961 -0.518791E-08  0.209E-04    3.36      61.8  T
     SCC iter.                  ...        0 min,  0.038 sec
     gradient                   ...        0 min,  0.017 sec
 * total energy  :   -82.3195107 Eh     change       -0.5545992E-03 Eh
   gradient norm :     0.0059078 Eh/α   predicted    -0.6200552E-03 (  11.80%)
   displ. norm   :     0.0193567 α      lambda       -0.1448332E-03
   maximum displ.:     0.0137508 α      in ANC's #1, #43, #28, ...

........................................................................
.............................. CYCLE    8 ..............................
........................................................................
   1    -83.3960961 -0.833961E+02  0.125E-02    3.37       0.0  T
   2    -83.3960964 -0.322208E-06  0.755E-03    3.37       1.7  T
   3    -83.3960958  0.631324E-06  0.459E-03    3.37       2.8  T
   4    -83.3960965 -0.769523E-06  0.132E-03    3.37       9.8  T
   5    -83.3960967 -0.116805E-06  0.166E-04    3.37      77.7  T
   6    -83.3960967 -0.443166E-09  0.978E-05    3.37     132.0  T
     SCC iter.                  ...        0 min,  0.034 sec
     gradient                   ...        0 min,  0.017 sec
 * total energy  :   -82.3195334 Eh     change       -0.2267528E-04 Eh
   gradient norm :     0.0043113 Eh/α   predicted    -0.2532934E-04 (  11.70%)
   displ. norm   :     0.0066391 α      lambda       -0.3669395E-04
   maximum displ.:     0.0025245 α      in ANC's #28, #1, #43, ...

........................................................................
.............................. CYCLE    9 ..............................
........................................................................
   1    -83.3961694 -0.833962E+02  0.360E-03    3.37       0.0  T
   2    -83.3961694 -0.150016E-07  0.213E-03    3.37       6.1  T
   3    -83.3961694  0.411667E-07  0.994E-04    3.37      13.0  T
   4    -83.3961694 -0.459338E-07  0.246E-04    3.37      52.4  T
     SCC iter.                  ...        0 min,  0.022 sec
     gradient                   ...        0 min,  0.017 sec
 * total energy  :   -82.3195413 Eh     change       -0.7911254E-05 Eh
   gradient norm :     0.0016841 Eh/α   predicted    -0.4750898E-05 ( -39.95%)
   displ. norm   :     0.0368512 α      lambda       -0.1261631E-03
   maximum displ.:     0.0157336 α      in ANC's #28, #29, #43, ...

........................................................................
.............................. CYCLE   10 ..............................
........................................................................
   1    -83.3966845 -0.833967E+02  0.186E-02    3.37       0.0  T
   2    -83.3966848 -0.345399E-06  0.111E-02    3.37       1.2  T
   3    -83.3966840  0.815155E-06  0.421E-03    3.37       3.1  T
   4    -83.3966849 -0.875987E-06  0.119E-03    3.37      10.8  T
   5    -83.3966849 -0.840924E-07  0.220E-04    3.37      58.6  T
   6    -83.3966849 -0.340464E-09  0.142E-04    3.37      90.8  T
     SCC iter.                  ...        0 min,  0.032 sec
     gradient                   ...        0 min,  0.017 sec
 * total energy  :   -82.3195597 Eh     change       -0.1838703E-04 Eh
   gradient norm :     0.0056526 Eh/α   predicted    -0.1296178E-04 ( -29.51%)
   displ. norm   :     0.0091799 α      lambda       -0.4843787E-04
   maximum displ.:     0.0040859 α      in ANC's #28, #1, #29, ...

........................................................................
.............................. CYCLE   11 ..............................
........................................................................
   1    -83.3967164 -0.833967E+02  0.489E-03    3.37       0.0  T
   2    -83.3967164 -0.225146E-07  0.287E-03    3.37       4.5  T
   3    -83.3967163  0.574183E-07  0.121E-03    3.37      10.7  T
   4    -83.3967164 -0.628054E-07  0.317E-04    3.37      40.8  T
   5    -83.3967164 -0.629394E-08  0.520E-05    3.37     248.3  T
     SCC iter.                  ...        0 min,  0.028 sec
     gradient                   ...        0 min,  0.017 sec
 * total energy  :   -82.3195663 Eh     change       -0.6619476E-05 Eh
   gradient norm :     0.0037033 Eh/α   predicted    -0.4134224E-05 ( -37.54%)
   displ. norm   :     0.0203122 α      lambda       -0.9405702E-04
   maximum displ.:     0.0099462 α      in ANC's #28, #29, #1, ...

........................................................................
.............................. CYCLE   12 ..............................
........................................................................
   1    -83.3967163 -0.833967E+02  0.960E-03    3.37       0.0  T
   2    -83.3967163 -0.529522E-07  0.568E-03    3.37       2.3  T
   3    -83.3967160  0.269060E-06  0.233E-03    3.37       5.5  T
   4    -83.3967163 -0.286144E-06  0.550E-04    3.37      23.5  T
   5    -83.3967163 -0.184278E-07  0.102E-04    3.37     127.0  T
     SCC iter.                  ...        0 min,  0.028 sec
     gradient                   ...        0 min,  0.017 sec
 * total energy  :   -82.3195749 Eh     change       -0.8631945E-05 Eh
   gradient norm :     0.0021303 Eh/α   predicted    -0.6860066E-05 ( -20.53%)
   displ. norm   :     0.0131791 α      lambda       -0.4254631E-04
   maximum displ.:     0.0067964 α      in ANC's #28, #29, #13, ...

........................................................................
.............................. CYCLE   13 ..............................
........................................................................
   1    -83.3966781 -0.833967E+02  0.566E-03    3.37       0.0  T
   2    -83.3966781 -0.724124E-08  0.340E-03    3.37       3.8  T
   3    -83.3966780  0.133774E-06  0.150E-03    3.37       8.6  T
   4    -83.3966781 -0.143447E-06  0.175E-04    3.37      73.9  T
   5    -83.3966781 -0.149545E-08  0.605E-05    3.37     213.5  T
     SCC iter.                  ...        0 min,  0.027 sec
     gradient                   ...        0 min,  0.017 sec
 * total energy  :   -82.3195794 Eh     change       -0.4498631E-05 Eh
   gradient norm :     0.0029060 Eh/α   predicted    -0.2710532E-05 ( -39.75%)
   displ. norm   :     0.0302070 α      lambda       -0.1101033E-03
   maximum displ.:     0.0156181 α      in ANC's #28, #13, #29, ...

........................................................................
.............................. CYCLE   14 ..............................
........................................................................
   1    -83.3965298 -0.833965E+02  0.123E-02    3.37       0.0  T
   2    -83.3965298 -0.310361E-07  0.741E-03    3.37       1.7  T
   3    -83.3965292  0.581784E-06  0.310E-03    3.37       4.2  T
   4    -83.3965299 -0.623411E-06  0.320E-04    3.37      40.3  T
   5    -83.3965299 -0.437120E-08  0.143E-04    3.37      90.4  T
     SCC iter.                  ...        0 min,  0.027 sec
     gradient                   ...        0 min,  0.017 sec
 * total energy  :   -82.3195874 Eh     change       -0.7972309E-05 Eh
   gradient norm :     0.0023241 Eh/α   predicted    -0.6227928E-05 ( -21.88%)
   displ. norm   :     0.0134970 α      lambda       -0.4236566E-04
   maximum displ.:     0.0067141 α      in ANC's #28, #13, #5, ...

........................................................................
.............................. CYCLE   15 ..............................
........................................................................
   1    -83.3964575 -0.833965E+02  0.493E-03    3.37       0.0  T
   2    -83.3964575 -0.116001E-07  0.297E-03    3.37       4.3  T
   3    -83.3964574  0.717674E-07  0.119E-03    3.37      10.8  T
   4    -83.3964575 -0.780292E-07  0.218E-04    3.37      59.3  T
   5    -83.3964575 -0.262870E-08  0.749E-05    3.37     172.3  T
     SCC iter.                  ...        0 min,  0.027 sec
     gradient                   ...        0 min,  0.017 sec
 * total energy  :   -82.3195906 Eh     change       -0.3200447E-05 Eh
   gradient norm :     0.0010274 Eh/α   predicted    -0.2157705E-05 ( -32.58%)
   displ. norm   :     0.0200325 α      lambda       -0.4759048E-04
   maximum displ.:     0.0089883 α      in ANC's #28, #13, #5, ...

........................................................................
.............................. CYCLE   16 ..............................
........................................................................
   1    -83.3963703 -0.833964E+02  0.632E-03    3.37       0.0  T
   2    -83.3963703 -0.326627E-07  0.381E-03    3.37       3.4  T
   3    -83.3963702  0.116685E-06  0.169E-03    3.37       7.6  T
   4    -83.3963703 -0.135957E-06  0.276E-04    3.37      46.8  T
   5    -83.3963703 -0.361788E-08  0.930E-05    3.37     138.8  T
     SCC iter.                  ...        0 min,  0.029 sec
     gradient                   ...        0 min,  0.017 sec
 * total energy  :   -82.3195943 Eh     change       -0.3759415E-05 Eh
   gradient norm :     0.0019955 Eh/α   predicted    -0.2199256E-05 ( -41.50%)
   displ. norm   :     0.0084950 α      lambda       -0.2881949E-04
   maximum displ.:     0.0036688 α      in ANC's #5, #13, #28, ...

........................................................................
.............................. CYCLE   17 ..............................
........................................................................
   1    -83.3963589 -0.833964E+02  0.281E-03    3.37       0.0  T
   2    -83.3963589 -0.261515E-08  0.167E-03    3.37       7.7  T
   3    -83.3963588  0.190007E-07  0.627E-04    3.37      20.6  T
   4    -83.3963589 -0.211036E-07  0.792E-05    3.37     163.1  T
     SCC iter.                  ...        0 min,  0.022 sec
     gradient                   ...        0 min,  0.016 sec
 * total energy  :   -82.3195974 Eh     change       -0.3025123E-05 Eh
   gradient norm :     0.0016843 Eh/α   predicted    -0.1220273E-05 ( -59.66%)
   displ. norm   :     0.0239239 α      lambda       -0.6189990E-04
   maximum displ.:     0.0115886 α      in ANC's #5, #13, #28, ...

........................................................................
.............................. CYCLE   18 ..............................
........................................................................
   1    -83.3962543 -0.833963E+02  0.692E-03    3.37       0.0  T
   2    -83.3962543 -0.979688E-08  0.409E-03    3.37       3.2  T
   3    -83.3962543  0.185675E-07  0.573E-04    3.37      22.5  T
   4    -83.3962543 -0.206038E-07  0.197E-04    3.37      65.6  T
     SCC iter.                  ...        0 min,  0.023 sec
     gradient                   ...        0 min,  0.017 sec
 * total energy  :   -82.3196019 Eh     change       -0.4505890E-05 Eh
   gradient norm :     0.0006100 Eh/α   predicted    -0.2430434E-05 ( -46.06%)
   displ. norm   :     0.0127168 α      lambda       -0.2169814E-04
   maximum displ.:     0.0068201 α      in ANC's #5, #13, #28, ...

   *** GEOMETRY OPTIMIZATION CONVERGED AFTER 18 ITERATIONS ***

------------------------------------------------------------------------
 total energy gain   :        -0.0834857 Eh      -52.3880 kcal/mol
 total RMSD          :         0.0332293 a0        0.0176 Å
 total power (kW/mol):       -12.1773083 (step) -225.8422 (real)
------------------------------------------------------------------------

 ANCopt (total)                0 d,  0 h,  0 min,  0.971 sec
 optimizer setup                ...        0 min,  0.000 sec (  0.008%)
 model hessian                  ...        0 min,  0.030 sec (  3.100%)
 ANC generation                 ...        0 min,  0.005 sec (  0.537%)
 coordinate transformation      ...        0 min,  0.001 sec (  0.060%)
 single point calculation       ...        0 min,  0.926 sec ( 95.425%)
 optimization log               ...        0 min,  0.004 sec (  0.400%)
 hessian update                 ...        0 min,  0.000 sec (  0.051%)
 rational function              ...        0 min,  0.003 sec (  0.338%)

================
 final structure:
================
60
 xtb: 6.5.0 (homebrew)
C            3.41565869719399      -38.10646511362663       16.17056223497432
C            3.62418316110865      -38.27661154443638       17.67436477241979
O            3.23496180854713      -37.07970720218004       18.34495033594786
C            2.70251859595742      -39.39252309967781       18.18301637920325
C            5.12251642186325      -38.46597196594798       18.11673167587378
C            5.51039913204598      -39.89817334731795       18.47995156150346
C            6.12591176300933      -37.92161837170756       17.09169070618445
O            5.22753855202043      -37.64087119912404       19.27526084937022
B            4.15388974714399      -36.79349809974190       19.31670871855098
C            4.00686772219752      -35.64276454484995       20.35311599779473
C            5.03311259789475      -35.33703149239718       21.16294329094139
C            5.08620320074961      -34.31760048370158       22.19382484915870
H            6.03875921314197      -34.23849165432733       22.70020535455987
C            3.88211385044045      -33.91273450227119       23.02649194267803
H            4.11684514639424      -33.66599777777112       24.05599416208722
C            2.58082632457098      -34.60443746838402       22.91788604131902
B            1.81689737788066      -34.85788064653595       24.25693133778396
O            2.35236319104008      -34.59860541702209       25.48946297408541
C            1.47089221246515      -35.11469748219252       26.48669834633426
C            1.40880868647117      -34.14534776538097       27.66437332944203
C            2.06599244041174      -36.44725343822689       26.95922650136222
C            0.12277878842003      -35.29747348179379       25.70206415013894
C           -0.80048482931748      -34.07817221648868       25.81959749668964
C           -0.66289207467388      -36.55866451354545       26.05168642708173
O            0.55065950340699      -35.36378505050831       24.34098586185793
C            2.06131107217201      -35.02438331456580       21.75715954719523
C            2.69155618193265      -34.87660356541966       20.40280930255368
H            2.02964728432087      -35.31451520477769       19.65326703352321
C            2.89921560165313      -33.42031991768550       20.06836744645977
C            3.63712029048393      -32.57944198750720       20.78659863235132
C            4.35729744427700      -32.89676741211352       22.01251156913967
H            4.93228265819865      -32.07646013062537       22.42097985329199
H            2.35242424786243      -37.99443731468849       15.97292203251685
H            3.78168070730726      -38.98062554558796       15.63885473312867
H            3.92076383204554      -37.21960946882855       15.80182656727813
H            1.67298888150551      -39.11232598832377       17.97193397990247
H            2.80548462184804      -39.50398650042894       19.25938727860264
H            2.91958835174357      -40.33639286935219       17.69192464301929
H            5.36671992824599      -40.55641297959313       17.62739443063408
H            4.92857483435535      -40.26019730601708       19.32128970920429
H            6.55934028168760      -39.91519093240662       18.76523369393524
H            6.12982509136801      -38.52134920839131       16.18654079974286
H            7.11816707737992      -37.94545658912266       17.53648941676249
H            5.89310819216049      -36.88790662673181       16.84912881647710
H            5.94135749838571      -35.91675467288665       21.04929387780871
H            2.38343283767208      -34.11232723703955       28.14515161480119
H            0.67096489941638      -34.48024505211905       28.38840688934662
H            1.16277638430567      -33.14154425907538       27.33358858207364
H            3.07287768586703      -36.26520399435992       27.32795716239056
H            2.13444989424472      -37.14221411799624       26.12592351905896
H            1.47068019186499      -36.88346514661347       27.75573281921947
H           -1.20457284525396      -33.98609974238903       26.82331152511708
H           -1.62102116110034      -34.19753134238407       25.11596102469072
H           -0.26052038203831      -33.17262200139604       25.55422159751378
H           -0.91166410717120      -36.56606202272727       27.10949186393636
H           -0.09886600760255      -37.45217905064877       25.80486266071303
H           -1.58331813751524      -36.57098401534415       25.47333910173548
H            1.10240543542596      -35.52337585536326       21.79248640087711
H            2.41997090522315      -33.06435587548972       19.16746808064646
H            3.74035909734584      -31.55323487284464       20.45327849700859

 Bond Distances (Angstroems)
 ---------------------------
C1-C2=1.5277         C1-H33=1.0872        C1-H34=1.0867        C1-H35=1.0852        C2-C1=1.5277         C2-O3=1.4261         
C2-C4=1.5341         C2-C5=1.5737         O3-C2=1.4261         O3-B9=1.3677         C4-C2=1.5341         C4-H36=1.0877        
C4-H37=1.0870        C4-H38=1.0859        C5-C2=1.5737         C5-C6=1.5276         C5-C7=1.5342         C5-O8=1.4262         
C6-C5=1.5276         C6-H39=1.0866        C6-H40=1.0851        C6-H41=1.0872        C7-C5=1.5342         C7-H42=1.0858        
C7-H43=1.0877        C7-H44=1.0870        O8-C5=1.4262         O8-B9=1.3684         B9-O3=1.3677         B9-O8=1.3684         
B9-C10=1.5556        C10-B9=1.5556        C10-C11=1.3426       C10-C27=1.5230       C11-C10=1.3426       C11-C12=1.4508       
C11-H45=1.0835       C12-C11=1.4508       C12-H13=1.0817       C12-C14=1.5189       C12-C31=1.6072       H13-C12=1.0817       
C14-C12=1.5189       C14-H15=1.0844       C14-C16=1.4777       C14-C31=1.5120       H15-C14=1.0844       C16-C14=1.4777       
C16-B17=1.5623       C16-C26=1.3392       B17-C16=1.5623       B17-O18=1.3686       B17-O25=1.3661       O18-B17=1.3686       
O18-C19=1.4275       C19-O18=1.4275       C19-C20=1.5266       C19-C21=1.5340       C19-C22=1.5705       C20-C19=1.5266       
C20-H46=1.0873       C20-H47=1.0866       C20-H48=1.0852       C21-C19=1.5340       C21-H49=1.0876       C21-H50=1.0872       
C21-H51=1.0859       C22-C19=1.5705       C22-C23=1.5339       C22-C24=1.5265       C22-O25=1.4283       C23-C22=1.5339       
C23-H52=1.0859       C23-H53=1.0875       C23-H54=1.0872       C24-C22=1.5265       C24-H55=1.0867       C24-H56=1.0851       
C24-H57=1.0871       O25-B17=1.3661       O25-C22=1.4283       C26-C16=1.3392       C26-C27=1.5011       C26-H58=1.0815       
C27-C10=1.5230       C27-C26=1.5011       C27-H28=1.0917       C27-C29=1.5086       H28-C27=1.0917       C29-C27=1.5086       
C29-C30=1.3294       C29-H59=1.0807       C30-C29=1.3294       C30-C31=1.4568       C30-H60=1.0839       C31-C12=1.6072       
C31-C14=1.5120       C31-C30=1.4568       C31-H32=1.0818       H32-C31=1.0818       H33-C1=1.0872        H34-C1=1.0867        
H35-C1=1.0852        H36-C4=1.0877        H37-C4=1.0870        H38-C4=1.0859        H39-C6=1.0866        H40-C6=1.0851        
H41-C6=1.0872        H42-C7=1.0858        H43-C7=1.0877        H44-C7=1.0870        H45-C11=1.0835       H46-C20=1.0873       
H47-C20=1.0866       H48-C20=1.0852       H49-C21=1.0876       H50-C21=1.0872       H51-C21=1.0859       H52-C23=1.0859       
H53-C23=1.0875       H54-C23=1.0872       H55-C24=1.0867       H56-C24=1.0851       H57-C24=1.0871       H58-C26=1.0815       
H59-C29=1.0807       H60-C30=1.0839       
 C  H  Rav=1.0859 sigma=0.0022  Rmin=1.0807  Rmax=1.0917    32
 C  B  Rav=1.5590 sigma=0.0034  Rmin=1.5556  Rmax=1.5623     2
 C  C  Rav=1.4980 sigma=0.0723  Rmin=1.3294  Rmax=1.6072    22
 O  B  Rav=1.3677 sigma=0.0010  Rmin=1.3661  Rmax=1.3686     4
 O  C  Rav=1.4270 sigma=0.0009  Rmin=1.4261  Rmax=1.4283     4

 selected bond angles (degree)
 --------------------
H33-C1-C2=108.90               H34-C1-C2=110.25               H34-C1-H33=108.86              H35-C1-C2=111.22               
H35-C1-H33=108.01              H35-C1-H34=109.54              O3-C2-C1=109.40                C4-C2-C1=108.99                
C4-C2-O3=106.90                C5-C2-C1=114.84                C5-C2-O3=103.22                C5-C2-C4=113.03                
B9-O3-C2=109.05                H36-C4-C2=108.48               H37-C4-C2=110.24               H37-C4-H36=107.95              
H38-C4-C2=111.24               H38-C4-H36=108.99              H38-C4-H37=109.86              C6-C5-C2=114.92                
C7-C5-C2=113.09                C7-C5-C6=108.99                O8-C5-C2=103.23                O8-C5-C6=109.30                
O8-C5-C7=106.82                H39-C6-C5=110.35               H40-C6-C5=111.16               H40-C6-H39=109.59              
H41-C6-C5=108.79               H41-C6-H39=108.90              H41-C6-H40=107.98              H42-C7-C5=111.31               
H43-C7-C5=108.40               H43-C7-H42=109.00              H44-C7-C5=110.27               H44-C7-H42=109.88              
H44-C7-H43=107.91              B9-O8-C5=108.97                O8-B9-O3=112.09                C10-B9-O3=124.38               
C10-B9-O8=123.53               C11-C10-B9=119.87              C27-C10-B9=118.39              C27-C10-C11=121.73             

 selected dihedral angles (degree)
 ---------------------------------
O3-C2-C1-H33=294.88           O3-C2-C1-H34=175.51           O3-C2-C1-H35= 53.80           C4-C2-C1-H33= 51.44           
C4-C2-C1-H34=292.06           C4-C2-C1-H35=170.35           C5-C2-C1-H33=179.41           C5-C2-C1-H34= 60.03           
C5-C2-C1-H35=298.32           B9-O3-C2-C1=222.31            B9-O3-C2-C4=104.43            B9-O3-C2-C5=345.00            
H36-C4-C2-C1=300.27           H36-C4-C2-O3= 58.41           H36-C4-C2-C5=171.29           H37-C4-C2-C1=182.26           
H37-C4-C2-O3=300.40           H37-C4-C2-C5= 53.28           H38-C4-C2-C1= 60.13           H38-C4-C2-O3=178.27           
H38-C4-C2-C5=291.15           C6-C5-C2-C1=256.21            C6-C5-C2-O3=137.22            C6-C5-C2-C4= 22.12            
C7-C5-C2-C1= 22.25            C7-C5-C2-O3=263.25            C7-C5-C2-C4=148.15            O8-C5-C2-C1=137.29            
O8-C5-C2-O3= 18.30            O8-C5-C2-C4=263.19            H39-C6-C5-C2= 60.39           H39-C6-C5-C7=292.27           
H39-C6-C5-O8=175.86           H40-C6-C5-C2=298.58           H40-C6-C5-C7=170.46           H40-C6-C5-O8= 54.05           
H41-C6-C5-C2=179.81           H41-C6-C5-C7= 51.69           H41-C6-C5-O8=295.28           H42-C7-C5-C2=290.99           
H42-C7-C5-C6= 60.13           H42-C7-C5-O8=178.11           H43-C7-C5-C2=171.12           H43-C7-C5-C6=300.26           
H43-C7-C5-O8= 58.25           H44-C7-C5-C2= 53.20           H44-C7-C5-C6=182.34           H44-C7-C5-O8=300.32           
B9-O8-C5-C2=344.57            B9-O8-C5-C6=221.82            B9-O8-C5-C7=104.04            O8-B9-O3-C2=  6.14            
C10-B9-O3-C2=186.16           O3-B9-O8-C5=  6.89            C10-B9-O8-C5=186.88           C11-C10-B9-O3=188.09          
C11-C10-B9-O8=  8.10          C27-C10-B9-O3=  7.23          C27-C10-B9-O8=187.24          
           -------------------------------------------------
          |                Final Singlepoint                |
           -------------------------------------------------

          ...................................................
          :                      SETUP                      :
          :.................................................:
          :  # basis functions                 144          :
          :  # atomic orbitals                 144          :
          :  # shells                           88          :
          :  # electrons                       150          :
          :  max. iterations                   250          :
          :  Hamiltonian                  GFN2-xTB          :
          :  restarted?                      false          :
          :  GBSA solvation                  false          :
          :  PC potential                    false          :
          :  electronic temp.          300.0000000     K    :
          :  accuracy                    1.0000000          :
          :  -> integral cutoff          0.2500000E+02      :
          :  -> integral neglect         0.1000000E-07      :
          :  -> SCF convergence          0.1000000E-05 Eh   :
          :  -> wf. convergence          0.1000000E-03 e    :
          :  Broyden damping             0.4000000          :
          ...................................................

 iter      E             dE          RMSdq      gap      omega  full diag
   1    -83.3962543 -0.833963E+02  0.762E-05    3.37       0.0  T
   2    -83.3962543 -0.100613E-10  0.513E-05    3.37     251.7  T
   3    -83.3962543 -0.162430E-10  0.362E-05    3.37     356.4  T

   *** convergence criteria satisfied after 3 iterations ***

         #    Occupation            Energy/Eh            Energy/eV
      -------------------------------------------------------------
         1        2.0000           -0.6883332             -18.7305
       ...           ...                  ...                  ...
        69        2.0000           -0.4059602             -11.0467
        70        2.0000           -0.3982948             -10.8382
        71        2.0000           -0.3963253             -10.7846
        72        2.0000           -0.3954202             -10.7599
        73        2.0000           -0.3891994             -10.5907
        74        2.0000           -0.3553423              -9.6694
        75        2.0000           -0.3467190              -9.4347 (HOMO)
        76                         -0.2230354              -6.0691 (LUMO)
        77                         -0.2153315              -5.8595
        78                         -0.1903292              -5.1791
        79                         -0.1026650              -2.7937
        80                         -0.0949104              -2.5826
       ...                                ...                  ...
       144                          0.6731125              18.3163
      -------------------------------------------------------------
                  HL-Gap            0.1236836 Eh            3.3656 eV
             Fermi-level           -0.2848772 Eh           -7.7519 eV

 SCC (total)                   0 d,  0 h,  0 min,  0.038 sec
 SCC setup                      ...        0 min,  0.000 sec (  0.451%)
 Dispersion                     ...        0 min,  0.000 sec (  0.835%)
 classical contributions        ...        0 min,  0.000 sec (  0.350%)
 integral evaluation            ...        0 min,  0.003 sec (  8.794%)
 iterations                     ...        0 min,  0.016 sec ( 43.688%)
 molecular gradient             ...        0 min,  0.017 sec ( 44.987%)
 printout                       ...        0 min,  0.000 sec (  0.883%)

         :::::::::::::::::::::::::::::::::::::::::::::::::::::
         ::                     SUMMARY                     ::
         :::::::::::::::::::::::::::::::::::::::::::::::::::::
         :: total energy             -82.319601879419 Eh    ::
         :: gradient norm              0.000610202036 Eh/a0 ::
         :: HOMO-LUMO gap              3.365601317652 eV    ::
         ::.................................................::
         :: SCC energy               -83.396254346603 Eh    ::
         :: -> isotropic ES            0.147271875753 Eh    ::
         :: -> anisotropic ES          0.012493943283 Eh    ::
         :: -> anisotropic XC          0.026864694910 Eh    ::
         :: -> dispersion             -0.061122410241 Eh    ::
         :: repulsion energy           1.075729460832 Eh    ::
         :: add. restraining           0.000113370669 Eh    ::
         :: total charge               0.000000000000 e     ::
         :::::::::::::::::::::::::::::::::::::::::::::::::::::

           -------------------------------------------------
          |                Property Printout                |
           -------------------------------------------------

    * Orbital Energies and Occupations

         #    Occupation            Energy/Eh            Energy/eV
      -------------------------------------------------------------
         1        2.0000           -0.6883332             -18.7305
       ...           ...                  ...                  ...
        63        2.0000           -0.4373244             -11.9002
        64        2.0000           -0.4359399             -11.8625
        65        2.0000           -0.4256199             -11.5817
        66        2.0000           -0.4198123             -11.4237
        67        2.0000           -0.4185393             -11.3890
        68        2.0000           -0.4117003             -11.2029
        69        2.0000           -0.4059602             -11.0467
        70        2.0000           -0.3982948             -10.8382
        71        2.0000           -0.3963253             -10.7846
        72        2.0000           -0.3954202             -10.7599
        73        2.0000           -0.3891994             -10.5907
        74        2.0000           -0.3553423              -9.6694
        75        2.0000           -0.3467190              -9.4347 (HOMO)
        76                         -0.2230354              -6.0691 (LUMO)
        77                         -0.2153315              -5.8595
        78                         -0.1903292              -5.1791
        79                         -0.1026650              -2.7937
        80                         -0.0949104              -2.5826
        81                         -0.0090446              -0.2461
        82                          0.0081498               0.2218
        83                          0.0117998               0.3211
        84                          0.0290964               0.7918
        85                          0.0299343               0.8146
        86                          0.0567740               1.5449
       ...                                ...                  ...
       144                          0.6731125              18.3163
      -------------------------------------------------------------
                  HL-Gap            0.1236836 Eh            3.3656 eV
             Fermi-level           -0.2848772 Eh           -7.7519 eV

     #   Z          covCN         q      C6AA      α(0)
     1   6 C        3.755    -0.117    22.794     6.807
     2   6 C        3.857     0.129    18.457     6.110
     3   8 O        1.638    -0.371    20.298     6.082
     4   6 C        3.755    -0.116    22.769     6.804
     5   6 C        3.857     0.129    18.454     6.109
     6   6 C        3.755    -0.117    22.797     6.808
     7   6 C        3.755    -0.116    22.774     6.805
     8   8 O        1.638    -0.374    20.360     6.091
     9   5 B        2.657     0.431    15.580     6.647
    10   6 C        2.870    -0.087    30.167     9.003
    11   6 C        2.895    -0.028    28.706     8.784
    12   6 C        3.847    -0.018    20.859     6.497
    13   1 H        0.925     0.032     2.564     2.504
    14   6 C        3.863    -0.013    20.759     6.479
    15   1 H        0.925     0.043     2.406     2.426
    16   6 C        2.863    -0.086    30.161     9.002
    17   5 B        2.665     0.433    15.533     6.632
    18   8 O        1.638    -0.374    20.366     6.092
    19   6 C        3.861     0.129    18.450     6.109
    20   6 C        3.755    -0.117    22.800     6.808
    21   6 C        3.755    -0.116    22.781     6.806
    22   6 C        3.862     0.129    18.451     6.109
    23   6 C        3.755    -0.116    22.786     6.806
    24   6 C        3.755    -0.118    22.806     6.809
    25   8 O        1.638    -0.371    20.301     6.082
    26   6 C        2.904    -0.026    28.659     8.778
    27   6 C        3.863    -0.017    20.835     6.491
    28   1 H        0.924     0.044     2.396     2.420
    29   6 C        2.897    -0.036    28.884     8.812
    30   6 C        2.889    -0.036    28.899     8.814
    31   6 C        3.849    -0.016    20.834     6.492
    32   1 H        0.925     0.031     2.577     2.510
    33   1 H        0.925     0.054     2.271     2.357
    34   1 H        0.925     0.039     2.460     2.453
    35   1 H        0.925     0.051     2.304     2.374
    36   1 H        0.925     0.052     2.295     2.369
    37   1 H        0.925     0.043     2.404     2.425
    38   1 H        0.925     0.042     2.426     2.436
    39   1 H        0.925     0.039     2.456     2.451
    40   1 H        0.925     0.051     2.303     2.373
    41   1 H        0.925     0.054     2.273     2.358
    42   1 H        0.925     0.042     2.421     2.433
    43   1 H        0.925     0.052     2.299     2.371
    44   1 H        0.925     0.043     2.403     2.424
    45   1 H        0.925     0.036     2.506     2.475
    46   1 H        0.925     0.054     2.267     2.354
    47   1 H        0.925     0.040     2.450     2.448
    48   1 H        0.925     0.052     2.292     2.367
    49   1 H        0.925     0.052     2.294     2.369
    50   1 H        0.925     0.044     2.402     2.423
    51   1 H        0.925     0.043     2.414     2.429
    52   1 H        0.925     0.043     2.410     2.428
    53   1 H        0.925     0.053     2.286     2.364
    54   1 H        0.925     0.044     2.400     2.423
    55   1 H        0.925     0.040     2.448     2.447
    56   1 H        0.925     0.052     2.290     2.367
    57   1 H        0.925     0.055     2.259     2.351
    58   1 H        0.925     0.036     2.509     2.477
    59   1 H        0.926     0.026     2.640     2.541
    60   1 H        0.925     0.024     2.671     2.556

 Mol. C6AA /au·bohr⁶  :      32802.602019
 Mol. C8AA /au·bohr⁸  :     759490.118793
 Mol. α(0) /au        :        273.170743


Wiberg/Mayer (AO) data.
largest (>0.10) Wiberg bond orders for each atom

 ---------------------------------------------------------------------------
     #   Z sym  total        # sym  WBO       # sym  WBO       # sym  WBO
 ---------------------------------------------------------------------------
     1   6 C    3.994 --     2 C    0.996    34 H    0.985    33 H    0.983
                            35 H    0.982
     2   6 C    3.943 --     1 C    0.996     4 C    0.991     3 O    0.955
                             5 C    0.936
     3   8 O    2.233 --     9 B    1.127     2 C    0.955
     4   6 C    3.994 --     2 C    0.991    38 H    0.984    37 H    0.984
                            36 H    0.983
     5   6 C    3.943 --     6 C    0.996     7 C    0.990     8 O    0.955
                             2 C    0.936
     6   6 C    3.994 --     5 C    0.996    39 H    0.985    41 H    0.983
                            40 H    0.982
     7   6 C    3.995 --     5 C    0.990    42 H    0.984    44 H    0.984
                            43 H    0.983
     8   8 O    2.229 --     9 B    1.124     5 C    0.955
     9   5 B    3.378 --     3 O    1.127     8 O    1.124    10 C    1.007
    10   6 C    3.975 --    11 C    1.778     9 B    1.007    27 C    0.963
    11   6 C    3.989 --    10 C    1.778    12 C    1.112    45 H    0.963
    12   6 C    3.944 --    11 C    1.112    13 H    0.974    14 C    0.898
                            31 C    0.830
    13   1 H    0.999 --    12 C    0.974
    14   6 C    3.957 --    16 C    1.051    15 H    0.968    31 C    0.916
                            12 C    0.898
    15   1 H    0.998 --    14 C    0.968
    16   6 C    3.978 --    26 C    1.809    14 C    1.051    17 B    0.996
    17   5 B    3.374 --    25 O    1.133    18 O    1.127    16 C    0.996
    18   8 O    2.231 --    17 B    1.127    19 C    0.952
    19   6 C    3.943 --    20 C    0.997    21 C    0.991    18 O    0.952
                            22 C    0.937
    20   6 C    3.994 --    19 C    0.997    47 H    0.984    46 H    0.983
                            48 H    0.982
    21   6 C    3.994 --    19 C    0.991    51 H    0.984    50 H    0.984
                            49 H    0.983
    22   6 C    3.942 --    24 C    0.997    23 C    0.991    25 O    0.951
                            19 C    0.937
    23   6 C    3.995 --    22 C    0.991    52 H    0.984    54 H    0.984
                            53 H    0.983
    24   6 C    3.994 --    22 C    0.997    55 H    0.984    57 H    0.983
                            56 H    0.982
    25   8 O    2.236 --    17 B    1.133    22 C    0.951
    26   6 C    3.986 --    16 C    1.809    27 C    0.993    58 H    0.968
    27   6 C    3.995 --    26 C    0.993    29 C    0.983    28 H    0.972
                            10 C    0.963
    28   1 H    0.998 --    27 C    0.972
    29   6 C    3.989 --    30 C    1.856    27 C    0.983    59 H    0.970
    30   6 C    3.991 --    29 C    1.856    31 C    1.092    60 H    0.965
    31   6 C    3.940 --    30 C    1.092    32 H    0.974    14 C    0.916
                            12 C    0.830
    32   1 H    0.999 --    31 C    0.974
    33   1 H    0.997 --     1 C    0.983
    34   1 H    0.998 --     1 C    0.985
    35   1 H    0.997 --     1 C    0.982
    36   1 H    0.997 --     4 C    0.983
    37   1 H    0.998 --     4 C    0.984
    38   1 H    0.998 --     4 C    0.984
    39   1 H    0.998 --     6 C    0.985
    40   1 H    0.997 --     6 C    0.982
    41   1 H    0.997 --     6 C    0.983
    42   1 H    0.998 --     7 C    0.984
    43   1 H    0.997 --     7 C    0.983
    44   1 H    0.998 --     7 C    0.984
    45   1 H    0.999 --    11 C    0.963
    46   1 H    0.997 --    20 C    0.983
    47   1 H    0.998 --    20 C    0.984
    48   1 H    0.997 --    20 C    0.982
    49   1 H    0.997 --    21 C    0.983
    50   1 H    0.998 --    21 C    0.984
    51   1 H    0.998 --    21 C    0.984
    52   1 H    0.998 --    23 C    0.984
    53   1 H    0.997 --    23 C    0.983
    54   1 H    0.998 --    23 C    0.984
    55   1 H    0.998 --    24 C    0.984
    56   1 H    0.997 --    24 C    0.982
    57   1 H    0.997 --    24 C    0.983
    58   1 H    0.999 --    26 C    0.968
    59   1 H    0.999 --    29 C    0.970
    60   1 H    0.999 --    30 C    0.965
 ---------------------------------------------------------------------------

Topologies differ in total number of bonds
Writing topology from bond orders to xtbtopo.mol

molecular dipole:
                 x           y           z       tot (Debye)
 q only:       -0.210      -0.534       0.290
   full:       -0.186      -0.654       0.341       1.933
molecular quadrupole (traceless):
                xx          xy          yy          xz          yz          zz
 q only:      -58.720      15.435      57.459     -21.559     -53.818       1.261
  q+dip:      -68.751      13.280      70.076     -18.118     -64.186      -1.325
   full:      -69.576      12.370      71.280     -20.211     -65.240      -1.704

           -------------------------------------------------
          |                Geometry Summary                 |
           -------------------------------------------------

      molecular mass/u    :      382.1099696
   center of mass at/Å    :        2.9648515     -35.8678926      21.8020951
  moments of inertia/u·Å² :        0.1499966E+04   0.6159713E+04   0.6657447E+04
rotational constants/cm⁻¹ :        0.1123868E-01   0.2736756E-02   0.2532147E-02

 * 58 selected distances

     #   Z          #   Z                                           value/Å
     1   6 C        2   6 C                                       1.5276959
     2   6 C        3   8 O                                       1.4260991
     2   6 C        4   6 C                                       1.5340962
     5   6 C        6   6 C                                       1.5276069
     5   6 C        7   6 C                                       1.5342205
     5   6 C        8   8 O                                       1.4261876
     3   8 O        9   5 B                                       1.3677203
     8   8 O        9   5 B                                       1.3683863
     9   5 B       10   6 C                                       1.5556168
    10   6 C       11   6 C                                       1.3425617
    11   6 C       12   6 C                                       1.4507844
    12   6 C       13   1 H                                       1.0816851
    12   6 C       14   6 C                                       1.5189083
    14   6 C       15   1 H                                       1.0843675
    14   6 C       16   6 C                                       1.4777002
    16   6 C       17   5 B                                       1.5623264 (max)
    17   5 B       18   8 O                                       1.3686058
    18   8 O       19   6 C                                       1.4275226
    19   6 C       20   6 C                                       1.5265687
    19   6 C       21   6 C                                       1.5339925
    22   6 C       23   6 C                                       1.5339250
    22   6 C       24   6 C                                       1.5264723
    17   5 B       25   8 O                                       1.3661490
    22   6 C       25   8 O                                       1.4282905
    16   6 C       26   6 C                                       1.3392300
    27   6 C       28   1 H                                       1.0916519
    29   6 C       30   6 C                                       1.3294493
    14   6 C       31   6 C                                       1.5120004
    30   6 C       31   6 C                                       1.4567819
    31   6 C       32   1 H                                       1.0818311
     1   6 C       33   1 H                                       1.0872348
     1   6 C       34   1 H                                       1.0866654
     1   6 C       35   1 H                                       1.0851776
     4   6 C       36   1 H                                       1.0876570
     4   6 C       37   1 H                                       1.0870145
     4   6 C       38   1 H                                       1.0859009
     6   6 C       39   1 H                                       1.0866356
     6   6 C       40   1 H                                       1.0850949
     6   6 C       41   1 H                                       1.0871767
     7   6 C       42   1 H                                       1.0858126
     7   6 C       43   1 H                                       1.0876511
     7   6 C       44   1 H                                       1.0870115
    11   6 C       45   1 H                                       1.0834686
    20   6 C       46   1 H                                       1.0872583
    20   6 C       47   1 H                                       1.0866437
    20   6 C       48   1 H                                       1.0851600
    21   6 C       49   1 H                                       1.0876224
    21   6 C       50   1 H                                       1.0872216
    21   6 C       51   1 H                                       1.0858636
    23   6 C       52   1 H                                       1.0859128
    23   6 C       53   1 H                                       1.0874884
    23   6 C       54   1 H                                       1.0872016
    24   6 C       55   1 H                                       1.0866898
    24   6 C       56   1 H                                       1.0850879
    24   6 C       57   1 H                                       1.0871163
    26   6 C       58   1 H                                       1.0815460
    29   6 C       59   1 H                                       1.0807432 (min)
    30   6 C       60   1 H                                       1.0839104

 * 5 distinct bonds (by element types)

   Z      Z             #   av. dist./Å        max./Å        min./Å
   1 H    6 C          32     1.0858595     1.0916519     1.0807432
   5 B    6 C           2     1.5589716     1.5623264     1.5556168
   6 C    6 C          16     1.4794996     1.5342205     1.3294493
   5 B    8 O           4     1.3677154     1.3686058     1.3661490
   6 C    8 O           4     1.4270250     1.4282905     1.4260991


optimized geometry written to: xtbopt.xyz


           -------------------------------------------------
          | TOTAL ENERGY              -82.319601879419 Eh   |
          | GRADIENT NORM               0.000610202036 Eh/α |
          | HOMO-LUMO GAP               3.365601317652 eV   |
           -------------------------------------------------

------------------------------------------------------------------------
 * finished run on 2022/07/09 at 18:32:53.539     
------------------------------------------------------------------------
 total:
 * wall-time:     0 d,  0 h,  0 min,  1.111 sec
 *  cpu-time:     0 d,  0 h,  0 min,  1.454 sec
 * ratio c/w:     1.309 speedup
 SCF:
 * wall-time:     0 d,  0 h,  0 min,  0.092 sec
 *  cpu-time:     0 d,  0 h,  0 min,  0.112 sec
 * ratio c/w:     1.221 speedup
 ANC optimizer:
 * wall-time:     0 d,  0 h,  0 min,  1.009 sec
 *  cpu-time:     0 d,  0 h,  0 min,  1.330 sec
 * ratio c/w:     1.317 speedup

