      -----------------------------------------------------------      
     |                   =====================                   |     
     |                           x T B                           |     
     |                   =====================                   |     
     |                         S. Grimme                         |     
     |          Mulliken Center for Theoretical Chemistry        |     
     |                    University of Bonn                     |     
      -----------------------------------------------------------      

   * xtb version 6.5.0 (homebrew) compiled by 'nhattrup@GPGGRP-SHANNON.CHEME.CMU.EDU' on 

   xtb is free software: you can redistribute it and/or modify it under
   the terms of the GNU Lesser General Public License as published by
   the Free Software Foundation, either version 3 of the License, or
   (at your option) any later version.
   
   xtb is distributed in the hope that it will be useful,
   but WITHOUT ANY WARRANTY; without even the implied warranty of
   MERCHANTABILITY or FITNESS FOR A PARTICULAR PURPOSE.  See the
   GNU Lesser General Public License for more details.
   
   Cite this work as:
   * C. Bannwarth, E. Caldeweyher, S. Ehlert, A. Hansen, P. Pracht,
     J. Seibert, S. Spicher, S. Grimme, WIREs Comput. Mol. Sci., 2020, 11,
     e01493. DOI: 10.1002/wcms.1493
   
   for GFN2-xTB:
   * C. Bannwarth, S. Ehlert and S. Grimme., J. Chem. Theory Comput., 2019,
     15, 1652-1671. DOI: 10.1021/acs.jctc.8b01176
   for GFN1-xTB:
   * S. Grimme, C. Bannwarth, P. Shushkov, J. Chem. Theory Comput., 2017,
     13, 1989-2009. DOI: 10.1021/acs.jctc.7b00118
   for GFN0-xTB:
   * P. Pracht, E. Caldeweyher, S. Ehlert, S. Grimme, ChemRxiv, 2019, preprint.
     DOI: 10.26434/chemrxiv.8326202.v1
   for GFN-FF:
   * S. Spicher and S. Grimme, Angew. Chem. Int. Ed., 2020, 59, 15665-15673.
     DOI: 10.1002/anie.202004239
   
   for ALPB and GBSA implicit solvation:
   * S. Ehlert, M. Stahn, S. Spicher, S. Grimme, J. Chem. Theory Comput.,
     2021, 17, 4250-4261. DOI: 10.1021/acs.jctc.1c00471
   
   for DFT-D4:
   * E. Caldeweyher, C. Bannwarth and S. Grimme, J. Chem. Phys., 2017,
     147, 034112. DOI: 10.1063/1.4993215
   * E. Caldeweyher, S. Ehlert, A. Hansen, H. Neugebauer, S. Spicher,
     C. Bannwarth and S. Grimme, J. Chem. Phys., 2019, 150, 154122.
     DOI: 10.1063/1.5090222
   * E. Caldeweyher, J.-M. Mewes, S. Ehlert and S. Grimme, Phys. Chem. Chem. Phys.
     2020, 22, 8499-8512. DOI: 10.1039/D0CP00502A
   
   for sTDA-xTB:
   * S. Grimme and C. Bannwarth, J. Chem. Phys., 2016, 145, 054103.
     DOI: 10.1063/1.4959605
   
   in the mass-spec context:
   * V. Asgeirsson, C. Bauer and S. Grimme, Chem. Sci., 2017, 8, 4879.
     DOI: 10.1039/c7sc00601b
   * J. Koopman and S. Grimme, ACS Omega 2019, 4, 12, 15120-15133.
     DOI: 10.1021/acsomega.9b02011
   
   for metadynamics refer to:
   * S. Grimme, J. Chem. Theory Comput., 2019, 155, 2847-2862
     DOI: 10.1021/acs.jctc.9b00143
   
   for SPH calculations refer to:
   * S. Spicher and S. Grimme, J. Chem. Theory Comput., 2021, 17, 1701-1714
     DOI: 10.1021/acs.jctc.0c01306
   
   with help from (in alphabetical order)
   P. Atkinson, C. Bannwarth, F. Bohle, G. Brandenburg, E. Caldeweyher
   M. Checinski, S. Dohm, S. Ehlert, S. Ehrlich, I. Gerasimov, C. Hölzer
   A. Katbashev, J. Koopman, C. Lavigne, S. Lehtola, F. März, M. Müller,
   F. Musil, H. Neugebauer, J. Pisarek, C. Plett, P. Pracht, F. Pultar,
   J. Seibert, P. Shushkov, S. Spicher, M. Stahn, M. Steiner, T. Strunk,
   J. Stückrath, T. Rose, and J. Unsleber
   
 * started run on 2022/07/09 at 18:33:28.631     

           -------------------------------------------------
          |                Calculation Setup                |
           -------------------------------------------------

          program call               : /opt/homebrew/bin/xtb bvl_bpin2_scan_7-4_xtb.xyz --chrg 0 --uhf 0 --opt --input xcontrol_bvl_bpin2_scan_7-4_xtb
          coordinate file            : bvl_bpin2_scan_7-4_xtb.xyz
          omp threads                :                     1

   ID    Z sym.   atoms
    1    6 C      1, 2, 4-7, 10-12, 14, 16, 19-24, 26, 27, 29-31
    2    8 O      3, 8, 18, 25
    3    5 B      9, 17
    4    1 H      13, 15, 28, 32-60
constraining bond 12 31 to    2.2778000 Å, actual value:    2.1646464 Å
constraining bond 10 29 to    2.0556000 Å, actual value:    2.1641363 Å

           -------------------------------------------------
          |                 G F N 2 - x T B                 |
           -------------------------------------------------

        Reference                      10.1021/acs.jctc.8b01176
      * Hamiltonian:
        H0-scaling (s, p, d)           1.850000    2.230000    2.230000
        zeta-weighting                 0.500000
      * Dispersion:
        s8                             2.700000
        a1                             0.520000
        a2                             5.000000
        s9                             5.000000
      * Repulsion:
        kExp                           1.500000    1.000000
        rExp                           1.000000
      * Coulomb:
        alpha                          2.000000
        third order                    shell-resolved
        anisotropic                    true
        a3                             3.000000
        a5                             4.000000
        cn-shift                       1.200000
        cn-exp                         4.000000
        max-rad                        5.000000


          ...................................................
          :                      SETUP                      :
          :.................................................:
          :  # basis functions                 144          :
          :  # atomic orbitals                 144          :
          :  # shells                           88          :
          :  # electrons                       150          :
          :  max. iterations                   250          :
          :  Hamiltonian                  GFN2-xTB          :
          :  restarted?                      false          :
          :  GBSA solvation                  false          :
          :  PC potential                    false          :
          :  electronic temp.          300.0000000     K    :
          :  accuracy                    1.0000000          :
          :  -> integral cutoff          0.2500000E+02      :
          :  -> integral neglect         0.1000000E-07      :
          :  -> SCF convergence          0.1000000E-05 Eh   :
          :  -> wf. convergence          0.1000000E-03 e    :
          :  Broyden damping             0.4000000          :
          ...................................................

 iter      E             dE          RMSdq      gap      omega  full diag
   1    -82.9355885 -0.829356E+02  0.473E+00    2.18       0.0  T
   2    -83.3091999 -0.373611E+00  0.292E+00    2.07       1.0  T
   3    -83.3029517  0.624818E-02  0.158E+00    2.27       1.0  T
   4    -83.2896626  0.132892E-01  0.108E+00    2.30       1.0  T
   5    -83.3625345 -0.728719E-01  0.279E-01    2.17       1.0  T
   6    -83.3667378 -0.420335E-02  0.114E-01    2.17       1.0  T
   7    -83.3667926 -0.547665E-04  0.346E-02    2.17       1.0  T
   8    -83.3668207 -0.281297E-04  0.124E-02    2.17       1.0  T
   9    -83.3668251 -0.437864E-05  0.582E-03    2.17       2.2  T
  10    -83.3668259 -0.782429E-06  0.277E-03    2.17       4.7  T
  11    -83.3668259 -0.607534E-07  0.121E-03    2.17      10.6  T
  12    -83.3668260 -0.893489E-07  0.383E-04    2.17      33.7  T
  13    -83.3668260 -0.227740E-08  0.224E-04    2.17      57.5  T

   *** convergence criteria satisfied after 13 iterations ***

         #    Occupation            Energy/Eh            Energy/eV
      -------------------------------------------------------------
         1        2.0000           -0.6871180             -18.6974
       ...           ...                  ...                  ...
        69        2.0000           -0.4023498             -10.9485
        70        2.0000           -0.3966215             -10.7926
        71        2.0000           -0.3964491             -10.7879
        72        2.0000           -0.3926134             -10.6836
        73        2.0000           -0.3914498             -10.6519
        74        2.0000           -0.3603271              -9.8050
        75        2.0000           -0.3356664              -9.1339 (HOMO)
        76                         -0.2560764              -6.9682 (LUMO)
        77                         -0.2189611              -5.9582
        78                         -0.1868108              -5.0834
        79                         -0.1380560              -3.7567
        80                         -0.0967435              -2.6325
       ...                                ...                  ...
       144                          0.6833234              18.5942
      -------------------------------------------------------------
                  HL-Gap            0.0795900 Eh            2.1658 eV
             Fermi-level           -0.2958714 Eh           -8.0511 eV

 SCC (total)                   0 d,  0 h,  0 min,  0.071 sec
 SCC setup                      ...        0 min,  0.000 sec (  0.342%)
 Dispersion                     ...        0 min,  0.000 sec (  0.626%)
 classical contributions        ...        0 min,  0.000 sec (  0.250%)
 integral evaluation            ...        0 min,  0.006 sec (  8.661%)
 iterations                     ...        0 min,  0.036 sec ( 50.313%)
 molecular gradient             ...        0 min,  0.028 sec ( 39.280%)
 printout                       ...        0 min,  0.000 sec (  0.523%)

         :::::::::::::::::::::::::::::::::::::::::::::::::::::
         ::                     SUMMARY                     ::
         :::::::::::::::::::::::::::::::::::::::::::::::::::::
         :: total energy             -82.114007553646 Eh    ::
         :: gradient norm              1.679475455912 Eh/a0 ::
         :: HOMO-LUMO gap              2.165755039819 eV    ::
         ::.................................................::
         :: SCC energy               -83.366826034003 Eh    ::
         :: -> isotropic ES            0.147733198135 Eh    ::
         :: -> anisotropic ES          0.012117449663 Eh    ::
         :: -> anisotropic XC          0.027308991564 Eh    ::
         :: -> dispersion             -0.062774554109 Eh    ::
         :: repulsion energy           1.076524565432 Eh    ::
         :: add. restraining           0.175581115986 Eh    ::
         :: total charge              -0.000000000000 e     ::
         :::::::::::::::::::::::::::::::::::::::::::::::::::::

      ----------------------------------------------------------- 
     |                   =====================                   |
     |                        A N C O P T                        |
     |                   =====================                   |
     |               Approximate Normal Coordinate               |
     |                Rational Function Optimizer                |
      ----------------------------------------------------------- 

          ...................................................
          :                      SETUP                      :
          :.................................................:
          :   optimization level            normal          :
          :   max. optcycles                   200          :
          :   ANC micro-cycles                  20          :
          :   degrees of freedom               174          :
          :.................................................:
          :   RF solver                   davidson          :
          :   write xtbopt.log                true          :
          :   linear?                        false          :
          :   energy convergence         0.5000000E-05 Eh   :
          :   grad. convergence          0.1000000E-02 Eh/α :
          :   maximium RF displ.         1.0000000          :
          :   Hlow (freq-cutoff)         0.1000000E-01      :
          :   Hmax (freq-cutoff)         5.0000000          :
          :   S6 in model hess.         20.0000000          :
          ...................................................

generating ANC from model Hessian ...
Using Lindh-Hessian (1995)
 Shifting diagonal of input Hessian by   0.20331810217089535     
 Lowest  eigenvalues of input Hessian
    0.010000    0.144368    0.000000    0.000000    0.000000    0.000000
    0.000000    0.000000    0.203427    0.203458    0.203612    0.204935
    0.205232    0.206129    0.206617    0.206678    0.207847    0.208447
 Highest eigenvalues
    1.916045    2.088296    2.097293    2.185536    8.797363    8.859107


........................................................................
.............................. CYCLE    1 ..............................
........................................................................
   1    -83.3668260 -0.833668E+02  0.800E-05    2.17       0.0  T
   2    -83.3668260 -0.301611E-09  0.515E-05    2.17     250.6  T
   3    -83.3668260 -0.117311E-09  0.240E-05    2.17     538.4  T
     SCC iter.                  ...        0 min,  0.009 sec
     gradient                   ...        0 min,  0.027 sec
 * total energy  :   -82.1140076 Eh     change       -0.1948351E-08 Eh
   gradient norm :     1.6794785 Eh/α   predicted     0.0000000E+00 (-100.00%)
   displ. norm   :     0.3111958 α      lambda       -0.5156637E+00
   maximum displ.:     0.2930399 α      in ANC's #174, #173, #127, ...

........................................................................
.............................. CYCLE    2 ..............................
........................................................................
   1    -83.3604660 -0.833605E+02  0.311E-01    2.39       0.0  T
   2    -83.3601869  0.279133E-03  0.312E-01    2.37       1.0  T
   3    -83.3634997 -0.331280E-02  0.156E-01    2.38       1.0  T
   4    -83.3633251  0.174569E-03  0.597E-02    2.38       1.0  T
   5    -83.3635182 -0.193123E-03  0.162E-02    2.38       1.0  T
   6    -83.3635316 -0.133408E-04  0.581E-03    2.38       2.2  T
   7    -83.3635323 -0.690745E-06  0.356E-03    2.38       3.6  T
   8    -83.3635327 -0.428788E-06  0.953E-04    2.38      13.5  T
   9    -83.3635327 -0.151669E-07  0.382E-04    2.38      33.8  T
     SCC iter.                  ...        0 min,  0.024 sec
     gradient                   ...        0 min,  0.028 sec
 * total energy  :   -82.2462973 Eh     change       -0.1322898E+00 Eh
   gradient norm :     0.8319728 Eh/α   predicted    -0.2832231E+00 ( 114.09%)
   displ. norm   :     0.1056442 α      lambda       -0.8395150E-01
   maximum displ.:     0.0961768 α      in ANC's #174, #173, #37, ...

........................................................................
.............................. CYCLE    3 ..............................
........................................................................
   1    -83.3650573 -0.833651E+02  0.110E-01    2.28       0.0  T
   2    -83.3650226  0.347240E-04  0.108E-01    2.29       1.0  T
   3    -83.3654644 -0.441774E-03  0.533E-02    2.29       1.0  T
   4    -83.3654382  0.262142E-04  0.240E-02    2.29       1.0  T
   5    -83.3654684 -0.302642E-04  0.733E-03    2.29       1.8  T
   6    -83.3654715 -0.305526E-05  0.229E-03    2.29       5.6  T
   7    -83.3654717 -0.174578E-06  0.119E-03    2.29      10.9  T
   8    -83.3654717 -0.349325E-07  0.319E-04    2.29      40.4  T
   9    -83.3654717 -0.146021E-08  0.125E-04    2.29     103.1  T
     SCC iter.                  ...        0 min,  0.025 sec
     gradient                   ...        0 min,  0.028 sec
 * total energy  :   -82.2892066 Eh     change       -0.4290925E-01 Eh
   gradient norm :     0.0280696 Eh/α   predicted    -0.4243885E-01 (  -1.10%)
   displ. norm   :     0.0428896 α      lambda       -0.8448983E-03
   maximum displ.:     0.0220280 α      in ANC's #37, #127, #109, ...

........................................................................
.............................. CYCLE    4 ..............................
........................................................................
   1    -83.3653534 -0.833654E+02  0.283E-02    2.29       0.0  T
   2    -83.3653540 -0.580110E-06  0.177E-02    2.29       1.0  T
   3    -83.3653437  0.102837E-04  0.146E-02    2.29       1.0  T
   4    -83.3653575 -0.137799E-04  0.276E-03    2.29       4.7  T
   5    -83.3653579 -0.356846E-06  0.110E-03    2.29      11.7  T
   6    -83.3653579 -0.686436E-07  0.425E-04    2.29      30.4  T
   7    -83.3653579 -0.419303E-08  0.225E-04    2.29      57.4  T
     SCC iter.                  ...        0 min,  0.019 sec
     gradient                   ...        0 min,  0.028 sec
 * total energy  :   -82.2899181 Eh     change       -0.7115825E-03 Eh
   gradient norm :     0.0161848 Eh/α   predicted    -0.4349960E-03 ( -38.87%)
   displ. norm   :     0.1386918 α      lambda       -0.1413336E-02
   maximum displ.:     0.0780942 α      in ANC's #1, #37, #33, ...

........................................................................
.............................. CYCLE    5 ..............................
........................................................................
   1    -83.3644821 -0.833645E+02  0.842E-02    2.30       0.0  T
   2    -83.3644840 -0.186045E-05  0.506E-02    2.30       1.0  T
   3    -83.3643862  0.978050E-04  0.372E-02    2.30       1.0  T
   4    -83.3644947 -0.108570E-03  0.553E-03    2.30       2.3  T
   5    -83.3644961 -0.132958E-05  0.209E-03    2.30       6.2  T
   6    -83.3644963 -0.208131E-06  0.102E-03    2.30      12.6  T
   7    -83.3644963 -0.240978E-07  0.475E-04    2.30      27.2  T
   8    -83.3644963 -0.814231E-08  0.139E-04    2.30      93.0  T
     SCC iter.                  ...        0 min,  0.022 sec
     gradient                   ...        0 min,  0.028 sec
 * total energy  :   -82.2904311 Eh     change       -0.5129401E-03 Eh
   gradient norm :     0.0160776 Eh/α   predicted    -0.7246293E-03 (  41.27%)
   displ. norm   :     0.3751497 α      lambda       -0.2702832E-02
   maximum displ.:     0.3107716 α      in ANC's #1, #37, #36, ...

........................................................................
.............................. CYCLE    6 ..............................
........................................................................
   1    -83.3586133 -0.833586E+02  0.217E-01    2.27       0.0  T
   2    -83.3586241 -0.107473E-04  0.129E-01    2.27       1.0  T
   3    -83.3583521  0.271997E-03  0.636E-02    2.27       1.0  T
   4    -83.3586370 -0.284975E-03  0.111E-02    2.27       1.2  T
   5    -83.3586446 -0.753529E-05  0.399E-03    2.27       3.2  T
   6    -83.3586452 -0.593588E-06  0.208E-03    2.27       6.2  T
   7    -83.3586452 -0.673905E-07  0.925E-04    2.27      14.0  T
   8    -83.3586453 -0.329573E-07  0.268E-04    2.27      48.2  T
     SCC iter.                  ...        0 min,  0.022 sec
     gradient                   ...        0 min,  0.028 sec
 * total energy  :   -82.2869640 Eh     change        0.3467088E-02 Eh
   gradient norm :     0.0682352 Eh/α   predicted    -0.1564080E-02 (-145.11%)
   displ. norm   :     0.2192766 α      lambda       -0.1191432E-01
   maximum displ.:     0.1860740 α      in ANC's #1, #37, #109, ...

........................................................................
.............................. CYCLE    7 ..............................
........................................................................
   1    -83.3655381 -0.833655E+02  0.132E-01    2.30       0.0  T
   2    -83.3655459 -0.782431E-05  0.789E-02    2.30       1.0  T
   3    -83.3654775  0.683625E-04  0.301E-02    2.30       1.0  T
   4    -83.3655502 -0.726520E-04  0.644E-03    2.30       2.0  T
   5    -83.3655525 -0.231851E-05  0.218E-03    2.30       5.9  T
   6    -83.3655526 -0.754721E-07  0.157E-03    2.30       8.2  T
   7    -83.3655527 -0.838046E-07  0.620E-04    2.30      20.8  T
   8    -83.3655527 -0.133503E-07  0.186E-04    2.30      69.3  T
     SCC iter.                  ...        0 min,  0.022 sec
     gradient                   ...        0 min,  0.028 sec
 * total energy  :   -82.2909081 Eh     change       -0.3944136E-02 Eh
   gradient norm :     0.0308275 Eh/α   predicted    -0.4056744E-02 (   2.86%)
   displ. norm   :     0.0485925 α      lambda       -0.1323161E-02
   maximum displ.:     0.0416665 α      in ANC's #1, #127, #115, ...

........................................................................
.............................. CYCLE    8 ..............................
........................................................................
   1    -83.3663633 -0.833664E+02  0.321E-02    2.28       0.0  T
   2    -83.3663637 -0.451987E-06  0.201E-02    2.28       1.0  T
   3    -83.3663498  0.138908E-04  0.157E-02    2.28       1.0  T
   4    -83.3663666 -0.167591E-04  0.294E-03    2.28       4.4  T
   5    -83.3663671 -0.461564E-06  0.109E-03    2.28      11.8  T
   6    -83.3663671 -0.631116E-07  0.419E-04    2.28      30.8  T
   7    -83.3663671 -0.229832E-08  0.254E-04    2.28      50.8  T
     SCC iter.                  ...        0 min,  0.019 sec
     gradient                   ...        0 min,  0.028 sec
 * total energy  :   -82.2911530 Eh     change       -0.2448645E-03 Eh
   gradient norm :     0.0240690 Eh/α   predicted    -0.2732105E-03 (  11.58%)
   displ. norm   :     0.0367170 α      lambda       -0.6612159E-03
   maximum displ.:     0.0225590 α      in ANC's #37, #33, #36, ...

........................................................................
.............................. CYCLE    9 ..............................
........................................................................
   1    -83.3667057 -0.833667E+02  0.186E-02    2.29       0.0  T
   2    -83.3667058 -0.131751E-06  0.110E-02    2.29       1.2  T
   3    -83.3667049  0.914178E-06  0.398E-03    2.29       3.2  T
   4    -83.3667058 -0.912224E-06  0.114E-03    2.29      11.3  T
   5    -83.3667059 -0.840317E-07  0.226E-04    2.29      57.1  T
   6    -83.3667059 -0.456808E-09  0.119E-04    2.29     108.8  T
     SCC iter.                  ...        0 min,  0.016 sec
     gradient                   ...        0 min,  0.028 sec
 * total energy  :   -82.2913058 Eh     change       -0.1527862E-03 Eh
   gradient norm :     0.0057575 Eh/α   predicted    -0.9730892E-04 ( -36.31%)
   displ. norm   :     0.0914359 α      lambda       -0.1237237E-02
   maximum displ.:     0.0574646 α      in ANC's #37, #33, #36, ...

........................................................................
.............................. CYCLE   10 ..............................
........................................................................
   1    -83.3673457 -0.833673E+02  0.449E-02    2.28       0.0  T
   2    -83.3673456  0.454646E-07  0.264E-02    2.28       1.0  T
   3    -83.3673321  0.135805E-04  0.148E-02    2.28       1.0  T
   4    -83.3673464 -0.143713E-04  0.115E-03    2.28      11.3  T
   5    -83.3673465 -0.533429E-07  0.594E-04    2.28      21.7  T
   6    -83.3673465 -0.649601E-08  0.307E-04    2.28      42.1  T
     SCC iter.                  ...        0 min,  0.017 sec
     gradient                   ...        0 min,  0.028 sec
 * total energy  :   -82.2914961 Eh     change       -0.1903301E-03 Eh
   gradient norm :     0.0175036 Eh/α   predicted    -0.1432221E-03 ( -24.75%)
   displ. norm   :     0.0713506 α      lambda       -0.7241959E-03
   maximum displ.:     0.0427190 α      in ANC's #37, #33, #36, ...

........................................................................
.............................. CYCLE   11 ..............................
........................................................................
   1    -83.3679247 -0.833679E+02  0.337E-02    2.27       0.0  T
   2    -83.3679248 -0.136676E-06  0.200E-02    2.27       1.0  T
   3    -83.3679227  0.211864E-05  0.615E-03    2.27       2.1  T
   4    -83.3679250 -0.223179E-05  0.885E-04    2.27      14.6  T
   5    -83.3679250 -0.342752E-07  0.425E-04    2.27      30.4  T
   6    -83.3679250 -0.580015E-08  0.222E-04    2.27      58.2  T
     SCC iter.                  ...        0 min,  0.016 sec
     gradient                   ...        0 min,  0.027 sec
 * total energy  :   -82.2915880 Eh     change       -0.9183323E-04 Eh
   gradient norm :     0.0123391 Eh/α   predicted    -0.6810365E-04 ( -25.84%)
   displ. norm   :     0.0396989 α      lambda       -0.3746552E-03
   maximum displ.:     0.0195188 α      in ANC's #37, #29, #17, ...

........................................................................
.............................. CYCLE   12 ..............................
........................................................................
   1    -83.3684754 -0.833685E+02  0.178E-02    2.26       0.0  T
   2    -83.3684755 -0.669078E-07  0.106E-02    2.26       1.2  T
   3    -83.3684752  0.304871E-06  0.248E-03    2.26       5.2  T
   4    -83.3684755 -0.333526E-06  0.452E-04    2.26      28.6  T
   5    -83.3684755 -0.383685E-08  0.316E-04    2.26      40.8  T
     SCC iter.                  ...        0 min,  0.014 sec
     gradient                   ...        0 min,  0.029 sec
 * total energy  :   -82.2916278 Eh     change       -0.3987464E-04 Eh
   gradient norm :     0.0032265 Eh/α   predicted    -0.2977268E-04 ( -25.33%)
   displ. norm   :     0.0231829 α      lambda       -0.2175780E-03
   maximum displ.:     0.0092996 α      in ANC's #17, #29, #33, ...

........................................................................
.............................. CYCLE   13 ..............................
........................................................................
   1    -83.3689707 -0.833690E+02  0.922E-03    2.26       0.0  T
   2    -83.3689707 -0.299802E-07  0.553E-03    2.26       2.3  T
   3    -83.3689704  0.290648E-06  0.226E-03    2.26       5.7  T
   4    -83.3689707 -0.302049E-06  0.460E-04    2.26      28.1  T
   5    -83.3689707 -0.101351E-07  0.242E-04    2.26      53.4  T
     SCC iter.                  ...        0 min,  0.014 sec
     gradient                   ...        0 min,  0.028 sec
 * total energy  :   -82.2916501 Eh     change       -0.2227829E-04 Eh
   gradient norm :     0.0044478 Eh/α   predicted    -0.1494744E-04 ( -32.91%)
   displ. norm   :     0.0307512 α      lambda       -0.2853572E-03
   maximum displ.:     0.0129043 α      in ANC's #17, #29, #43, ...

........................................................................
.............................. CYCLE   14 ..............................
........................................................................
   1    -83.3695156 -0.833695E+02  0.111E-02    2.26       0.0  T
   2    -83.3695156 -0.397009E-07  0.670E-03    2.26       1.9  T
   3    -83.3695150  0.641888E-06  0.337E-03    2.26       3.8  T
   4    -83.3695156 -0.679780E-06  0.460E-04    2.26      28.1  T
   5    -83.3695156 -0.717523E-08  0.310E-04    2.26      41.7  T
     SCC iter.                  ...        0 min,  0.014 sec
     gradient                   ...        0 min,  0.028 sec
 * total energy  :   -82.2916751 Eh     change       -0.2503439E-04 Eh
   gradient norm :     0.0074897 Eh/α   predicted    -0.1726543E-04 ( -31.03%)
   displ. norm   :     0.0359492 α      lambda       -0.2892578E-03
   maximum displ.:     0.0152191 α      in ANC's #17, #29, #6, ...

........................................................................
.............................. CYCLE   15 ..............................
........................................................................
   1    -83.3698355 -0.833698E+02  0.123E-02    2.25       0.0  T
   2    -83.3698355 -0.426862E-07  0.742E-03    2.25       1.7  T
   3    -83.3698346  0.900153E-06  0.371E-03    2.25       3.5  T
   4    -83.3698356 -0.971722E-06  0.428E-04    2.25      30.2  T
   5    -83.3698356 -0.735895E-08  0.223E-04    2.25      57.8  T
     SCC iter.                  ...        0 min,  0.014 sec
     gradient                   ...        0 min,  0.028 sec
 * total energy  :   -82.2916972 Eh     change       -0.2205986E-04 Eh
   gradient norm :     0.0059568 Eh/α   predicted    -0.1562348E-04 ( -29.18%)
   displ. norm   :     0.0379332 α      lambda       -0.1886026E-03
   maximum displ.:     0.0166348 α      in ANC's #29, #17, #6, ...

........................................................................
.............................. CYCLE   16 ..............................
........................................................................
   1    -83.3698246 -0.833698E+02  0.128E-02    2.25       0.0  T
   2    -83.3698247 -0.450411E-07  0.771E-03    2.25       1.7  T
   3    -83.3698237  0.971110E-06  0.368E-03    2.25       3.5  T
   4    -83.3698247 -0.102725E-05  0.726E-04    2.25      17.8  T
   5    -83.3698248 -0.266912E-07  0.312E-04    2.25      41.4  T
   6    -83.3698248 -0.326891E-08  0.141E-04    2.25      91.6  T
     SCC iter.                  ...        0 min,  0.016 sec
     gradient                   ...        0 min,  0.028 sec
 * total energy  :   -82.2917112 Eh     change       -0.1402641E-04 Eh
   gradient norm :     0.0021696 Eh/α   predicted    -0.9201434E-05 ( -34.40%)
   displ. norm   :     0.0114407 α      lambda       -0.1266015E-03
   maximum displ.:     0.0060448 α      in ANC's #37, #36, #29, ...

........................................................................
.............................. CYCLE   17 ..............................
........................................................................
   1    -83.3695306 -0.833695E+02  0.502E-03    2.26       0.0  T
   2    -83.3695306 -0.339431E-08  0.305E-03    2.26       4.2  T
   3    -83.3695304  0.236871E-06  0.201E-03    2.26       6.4  T
   4    -83.3695306 -0.251090E-06  0.351E-04    2.26      36.7  T
   5    -83.3695306 -0.670406E-08  0.101E-04    2.26     127.8  T
     SCC iter.                  ...        0 min,  0.014 sec
     gradient                   ...        0 min,  0.028 sec
 * total energy  :   -82.2917206 Eh     change       -0.9352396E-05 Eh
   gradient norm :     0.0018762 Eh/α   predicted    -0.5685729E-05 ( -39.21%)
   displ. norm   :     0.0351181 α      lambda       -0.2579513E-03
   maximum displ.:     0.0145315 α      in ANC's #37, #36, #6, ...

........................................................................
.............................. CYCLE   18 ..............................
........................................................................
   1    -83.3685205 -0.833685E+02  0.159E-02    2.26       0.0  T
   2    -83.3685206 -0.152015E-07  0.969E-03    2.26       1.3  T
   3    -83.3685185  0.209436E-05  0.601E-03    2.26       2.1  T
   4    -83.3685207 -0.222277E-05  0.775E-04    2.26      16.7  T
   5    -83.3685207 -0.294168E-07  0.333E-04    2.26      38.7  T
   6    -83.3685207 -0.322007E-08  0.166E-04    2.26      77.8  T
     SCC iter.                  ...        0 min,  0.016 sec
     gradient                   ...        0 min,  0.028 sec
 * total energy  :   -82.2917347 Eh     change       -0.1412867E-04 Eh
   gradient norm :     0.0045695 Eh/α   predicted    -0.1063966E-04 ( -24.69%)
   displ. norm   :     0.0098052 α      lambda       -0.8078425E-04
   maximum displ.:     0.0045340 α      in ANC's #29, #17, #6, ...

........................................................................
.............................. CYCLE   19 ..............................
........................................................................
   1    -83.3686226 -0.833686E+02  0.379E-03    2.26       0.0  T
   2    -83.3686226 -0.379933E-08  0.229E-03    2.26       5.6  T
   3    -83.3686225  0.478136E-07  0.874E-04    2.26      14.8  T
   4    -83.3686226 -0.492576E-07  0.189E-04    2.26      68.4  T
     SCC iter.                  ...        0 min,  0.011 sec
     gradient                   ...        0 min,  0.029 sec
 * total energy  :   -82.2917402 Eh     change       -0.5507253E-05 Eh
   gradient norm :     0.0030867 Eh/α   predicted    -0.3096278E-05 ( -43.78%)
   displ. norm   :     0.0397937 α      lambda       -0.3239111E-03
   maximum displ.:     0.0182303 α      in ANC's #29, #6, #17, ...

........................................................................
.............................. CYCLE   20 ..............................
........................................................................
   1    -83.3689850 -0.833690E+02  0.143E-02    2.26       0.0  T
   2    -83.3689851 -0.407154E-07  0.870E-03    2.26       1.5  T
   3    -83.3689836  0.142388E-05  0.466E-03    2.26       2.8  T
   4    -83.3689851 -0.148505E-05  0.791E-04    2.26      16.3  T
   5    -83.3689852 -0.320413E-07  0.306E-04    2.26      42.2  T
   6    -83.3689852 -0.369917E-08  0.107E-04    2.26     120.1  T
     SCC iter.                  ...        0 min,  0.017 sec
     gradient                   ...        0 min,  0.028 sec
 * total energy  :   -82.2917526 Eh     change       -0.1241454E-04 Eh
   gradient norm :     0.0021382 Eh/α   predicted    -0.1092037E-04 ( -12.04%)
   displ. norm   :     0.0139210 α      lambda       -0.5474277E-04
   maximum displ.:     0.0059128 α      in ANC's #6, #29, #8, ...
 * RMSD in coord.:     0.0816385 α      energy gain  -0.1777451E+00 Eh

generating ANC from model Hessian ...
Using Lindh-Hessian (1995)
 Shifting diagonal of input Hessian by    9.9419640210953036E-003
 Lowest  eigenvalues of input Hessian
    0.000000    0.000000    0.000000    0.000000    0.000000    0.000000
    0.010000    0.010076    0.010082    0.010127    0.010812    0.011762
    0.012297    0.013191    0.013257    0.013416    0.014590    0.015102
 Highest eigenvalues
    1.722012    1.901399    1.906612    1.923614    8.628690    8.686150


........................................................................
.............................. CYCLE   21 ..............................
........................................................................
   1    -83.3690677 -0.833691E+02  0.428E-03    2.26       0.0  T
   2    -83.3690677 -0.312066E-08  0.259E-03    2.26       5.0  T
   3    -83.3690676  0.765209E-07  0.112E-03    2.26      11.5  T
   4    -83.3690677 -0.794624E-07  0.169E-04    2.26      76.2  T
   5    -83.3690677 -0.129704E-08  0.806E-05    2.26     160.1  T
     SCC iter.                  ...        0 min,  0.014 sec
     gradient                   ...        0 min,  0.028 sec
 * total energy  :   -82.2917556 Eh     change       -0.2946872E-05 Eh
   gradient norm :     0.0022437 Eh/α   predicted     0.0000000E+00 (-100.00%)
   displ. norm   :     0.0309910 α      lambda        0.1145563E-04
   maximum displ.:     0.0176891 α      in ANC's #6, #28, #10, ...

........................................................................
.............................. CYCLE   22 ..............................
........................................................................
   1    -83.3691740 -0.833692E+02  0.903E-03    2.26       0.0  T
   2    -83.3691740 -0.130204E-07  0.541E-03    2.26       2.4  T
   3    -83.3691738  0.278512E-06  0.211E-03    2.26       6.1  T
   4    -83.3691740 -0.295801E-06  0.329E-04    2.26      39.3  T
   5    -83.3691741 -0.463122E-08  0.133E-04    2.26      97.2  T
     SCC iter.                  ...        0 min,  0.014 sec
     gradient                   ...        0 min,  0.028 sec
 * total energy  :   -82.2917683 Eh     change       -0.1271327E-04 Eh
   gradient norm :     0.0014756 Eh/α   predicted    -0.8173374E-05 ( -35.71%)
   displ. norm   :     0.1089147 α      lambda       -0.2372771E-04
   maximum displ.:     0.0666724 α      in ANC's #6, #10, #8, ...

........................................................................
.............................. CYCLE   23 ..............................
........................................................................
   1    -83.3693076 -0.833693E+02  0.267E-02    2.27       0.0  T
   2    -83.3693077 -0.982536E-07  0.159E-02    2.27       1.0  T
   3    -83.3693061  0.161011E-05  0.535E-03    2.27       2.4  T
   4    -83.3693078 -0.166981E-05  0.112E-03    2.27      11.5  T
   5    -83.3693078 -0.641374E-07  0.372E-04    2.27      34.7  T
   6    -83.3693078 -0.135054E-08  0.213E-04    2.27      60.6  T
     SCC iter.                  ...        0 min,  0.016 sec
     gradient                   ...        0 min,  0.028 sec
 * total energy  :   -82.2917838 Eh     change       -0.1547429E-04 Eh
   gradient norm :     0.0024033 Eh/α   predicted    -0.1192725E-04 ( -22.92%)
   displ. norm   :     0.0227062 α      lambda       -0.7944913E-05
   maximum displ.:     0.0134754 α      in ANC's #6, #2, #1, ...

........................................................................
.............................. CYCLE   24 ..............................
........................................................................
   1    -83.3692799 -0.833693E+02  0.511E-03    2.27       0.0  T
   2    -83.3692799 -0.615599E-08  0.305E-03    2.27       4.2  T
   3    -83.3692799  0.159600E-07  0.476E-04    2.27      27.1  T
   4    -83.3692799 -0.165967E-07  0.175E-04    2.27      73.7  T
     SCC iter.                  ...        0 min,  0.011 sec
     gradient                   ...        0 min,  0.028 sec
 * total energy  :   -82.2917900 Eh     change       -0.6201030E-05 Eh
   gradient norm :     0.0014460 Eh/α   predicted    -0.3995415E-05 ( -35.57%)
   displ. norm   :     0.0734570 α      lambda       -0.1155751E-04
   maximum displ.:     0.0407001 α      in ANC's #6, #2, #1, ...

........................................................................
.............................. CYCLE   25 ..............................
........................................................................
   1    -83.3691564 -0.833692E+02  0.155E-02    2.27       0.0  T
   2    -83.3691565 -0.511181E-07  0.926E-03    2.27       1.4  T
   3    -83.3691563  0.144762E-06  0.157E-03    2.27       8.2  T
   4    -83.3691565 -0.146681E-06  0.615E-04    2.27      21.0  T
   5    -83.3691565 -0.158005E-07  0.257E-04    2.27      50.2  T
     SCC iter.                  ...        0 min,  0.014 sec
     gradient                   ...        0 min,  0.028 sec
 * total energy  :   -82.2917985 Eh     change       -0.8493687E-05 Eh
   gradient norm :     0.0016332 Eh/α   predicted    -0.5801027E-05 ( -31.70%)
   displ. norm   :     0.0330631 α      lambda       -0.3024399E-05
   maximum displ.:     0.0194953 α      in ANC's #2, #6, #1, ...

........................................................................
.............................. CYCLE   26 ..............................
........................................................................
   1    -83.3691536 -0.833692E+02  0.455E-03    2.27       0.0  T
   2    -83.3691536 -0.159322E-08  0.276E-03    2.27       4.7  T
   3    -83.3691534  0.119020E-06  0.135E-03    2.27       9.6  T
   4    -83.3691536 -0.125295E-06  0.173E-04    2.27      74.8  T
   5    -83.3691536 -0.927329E-09  0.102E-04    2.27     126.5  T
     SCC iter.                  ...        0 min,  0.014 sec
     gradient                   ...        0 min,  0.028 sec
 * total energy  :   -82.2918023 Eh     change       -0.3884698E-05 Eh
   gradient norm :     0.0007720 Eh/α   predicted    -0.1513196E-05 ( -61.05%)
   displ. norm   :     0.0666195 α      lambda       -0.5271959E-05
   maximum displ.:     0.0406246 α      in ANC's #2, #1, #6, ...

   *** GEOMETRY OPTIMIZATION CONVERGED AFTER 26 ITERATIONS ***

------------------------------------------------------------------------
 total energy gain   :        -0.1777948 Eh     -111.5679 kcal/mol
 total RMSD          :         0.0930524 a0        0.0492 Å
 total power (kW/mol):       -17.9538519 (step) -331.0822 (real)
------------------------------------------------------------------------

 ANCopt (total)                0 d,  0 h,  0 min,  1.410 sec
 optimizer setup                ...        0 min,  0.000 sec (  0.006%)
 model hessian                  ...        0 min,  0.064 sec (  4.544%)
 ANC generation                 ...        0 min,  0.005 sec (  0.382%)
 coordinate transformation      ...        0 min,  0.000 sec (  0.028%)
 single point calculation       ...        0 min,  1.330 sec ( 94.336%)
 optimization log               ...        0 min,  0.005 sec (  0.383%)
 hessian update                 ...        0 min,  0.001 sec (  0.041%)
 rational function              ...        0 min,  0.003 sec (  0.204%)

================
 final structure:
================
60
 xtb: 6.5.0 (homebrew)
C            3.51959122724554      -37.71296821958567       15.90105443039062
C            3.74916967842972      -38.14859782194830       17.34630701576474
O            3.26963013855649      -37.13846843205522       18.23228755434650
C            2.92568315902250      -39.41220597261050       17.62739654604551
C            5.25705024680342      -38.30015278692856       17.76240294432653
C            5.77667892130778      -39.73571568542111       17.78937329967827
C            6.19927208232873      -37.44052942295483       16.90994309278951
O            5.28366369275230      -37.76067939080740       19.08314877944978
B            4.14741859123212      -37.02264140797650       19.28028474584326
C            3.86813025217554      -36.19221874027325       20.55542701633215
C            4.89141697422795      -36.02043783565810       21.51327958299421
C            4.90678489056940      -35.23189011820465       22.61574504514451
H            5.82340304494099      -35.17317242379583       23.18603387863689
C            3.81763131557198      -34.27790080768617       23.03500492056896
H            4.04912088307877      -33.86850958854579       24.01974254198415
C            2.44098840746502      -34.88645850510067       23.10232733157731
B            1.70281195508591      -34.88046708590392       24.47674732688510
O            2.23853610787553      -34.37516959168332       25.62955995057668
C            1.38256242260935      -34.71399266056905       26.71973704718047
C            1.28402699181040      -33.53127464964810       27.68037799078326
C            2.03533393394457      -35.89793357071944       27.44477679649530
C            0.03743173234844      -35.10347589686441       26.00621283687904
C           -0.94983117280933      -33.93289337290361       25.91533109303952
C           -0.67829801527545      -36.31612127984042       26.59689607005898
O            0.45375005971736      -35.39995816046181       24.67359782608889
C            1.88064000222673      -35.46408569644370       22.03938228001227
C            2.48039217869677      -35.58265044918269       20.68865352522231
H            1.79423335407502      -36.08589082711528       20.00868308729843
C            3.07205942265306      -34.37504899797541       20.03093835824640
C            3.74001342069103      -33.32457929140183       20.66754409150123
C            4.04433707098272      -33.22069373519680       21.98838388147084
H            4.63023838768304      -32.36991621433418       22.30721346310431
H            2.44971663689294      -37.65839877519926       15.71522492361123
H            3.95883214618153      -38.43468108091881       15.21769954645345
H            3.94389136054863      -36.73186821273708       15.71357156850974
H            1.87377025938164      -39.17907699656544       17.47812525567942
H            3.05736613081109      -39.72255034090094       18.66104227061856
H            3.20640841531168      -40.22180859378881       16.96056734021779
H            5.67950425095934      -40.18995133172665       16.80696867515688
H            5.24096958209319      -40.33256475951010       18.52030473981382
H            6.82704348902106      -39.72416079084891       18.06964998114959
H            6.26669539258715      -37.82002664496347       15.89478661505593
H            7.18802161976076      -37.46060093012632       17.36255611431968
H            5.85810252590721      -36.40833366716343       16.89620419909280
H            5.79435502603886      -36.57571599937484       21.28542865550842
H            2.25867554311910      -33.36086646882107       28.13103029923330
H            0.56585187276802      -33.74598228945518       28.46715726534345
H            0.99131920993071      -32.62543622859854       27.15948289074340
H            3.03129810736244      -35.60058691524878       27.76510327146520
H            2.13917945536113      -36.74119875379542       26.76649870706695
H            1.45730889930001      -36.19331781309850       28.31525102821668
H           -1.34695385785694      -33.67667963894377       26.89300489512824
H           -1.77072383615351      -34.22463205870829       25.26435826990474
H           -0.46490108780433      -33.06555002783000       25.47454094013405
H           -0.92327686673323      -36.13739308885673       27.64041612983756
H           -0.06830369342387      -37.20974613328827       26.51461822183387
H           -1.59848684911990      -36.48491648991364       26.04313854941060
H            0.89884730801424      -35.90278460568718       22.15700569562983
H            2.99650170705946      -34.35621674319610       18.95502725731771
H            4.07887589465922      -32.52521598093835       20.01721234283211

 Bond Distances (Angstroems)
 ---------------------------
C1-C2=1.5268         C1-H33=1.0873        C1-H34=1.0866        C1-H35=1.0852        C2-C1=1.5268         C2-O3=1.4266         
C2-C4=1.5342         C2-C5=1.5716         O3-C2=1.4266         O3-B9=1.3719         C4-C2=1.5342         C4-H36=1.0877        
C4-H37=1.0872        C4-H38=1.0858        C5-C2=1.5716         C5-C6=1.5270         C5-C7=1.5341         C5-O8=1.4269         
C6-C5=1.5270         C6-H39=1.0867        C6-H40=1.0851        C6-H41=1.0872        C7-C5=1.5341         C7-H42=1.0859        
C7-H43=1.0876        C7-H44=1.0872        O8-C5=1.4269         O8-B9=1.3692         B9-O3=1.3719         B9-O8=1.3692         
B9-C10=1.5471        C10-B9=1.5471        C10-C11=1.4121       C10-C27=1.5216       C11-C10=1.4121       C11-C12=1.3555       
C11-H45=1.0842       C12-C11=1.3555       C12-H13=1.0811       C12-C14=1.5074       H13-C12=1.0811       C14-C12=1.5074       
C14-H15=1.0913       C14-C16=1.5067       C14-C31=1.5048       H15-C14=1.0913       C16-C14=1.5067       C16-B17=1.5601       
C16-C26=1.3332       B17-C16=1.5601       B17-O18=1.3680       B17-O25=1.3670       O18-B17=1.3680       O18-C19=1.4269       
C19-O18=1.4269       C19-C20=1.5269       C19-C21=1.5341       C19-C22=1.5717       C20-C19=1.5269       C20-H46=1.0872       
C20-H47=1.0867       C20-H48=1.0852       C21-C19=1.5341       C21-H49=1.0876       C21-H50=1.0872       C21-H51=1.0859       
C22-C19=1.5717       C22-C23=1.5340       C22-C24=1.5270       C22-O25=1.4273       C23-C22=1.5340       C23-H52=1.0859       
C23-H53=1.0875       C23-H54=1.0871       C24-C22=1.5270       C24-H55=1.0867       C24-H56=1.0851       C24-H57=1.0871       
O25-B17=1.3670       O25-C22=1.4273       C26-C16=1.3332       C26-C27=1.4826       C26-H58=1.0818       C27-C10=1.5216       
C27-C26=1.4826       C27-H28=1.0892       C27-C29=1.4970       H28-C27=1.0892       C29-C27=1.4970       C29-C30=1.3982       
C29-H59=1.0787       C30-C29=1.3982       C30-C31=1.3594       C30-H60=1.0848       C31-C14=1.5048       C31-C30=1.3594       
C31-H32=1.0811       H32-C31=1.0811       H33-C1=1.0873        H34-C1=1.0866        H35-C1=1.0852        H36-C4=1.0877        
H37-C4=1.0872        H38-C4=1.0858        H39-C6=1.0867        H40-C6=1.0851        H41-C6=1.0872        H42-C7=1.0859        
H43-C7=1.0876        H44-C7=1.0872        H45-C11=1.0842       H46-C20=1.0872       H47-C20=1.0867       H48-C20=1.0852       
H49-C21=1.0876       H50-C21=1.0872       H51-C21=1.0859       H52-C23=1.0859       H53-C23=1.0875       H54-C23=1.0871       
H55-C24=1.0867       H56-C24=1.0851       H57-C24=1.0871       H58-C26=1.0818       H59-C29=1.0787       H60-C30=1.0848       
 C  H  Rav=1.0860 sigma=0.0024  Rmin=1.0787  Rmax=1.0913    32
 C  B  Rav=1.5536 sigma=0.0065  Rmin=1.5471  Rmax=1.5601     2
 C  C  Rav=1.4889 sigma=0.0699  Rmin=1.3332  Rmax=1.5717    21
 O  B  Rav=1.3690 sigma=0.0018  Rmin=1.3670  Rmax=1.3719     4
 O  C  Rav=1.4269 sigma=0.0002  Rmin=1.4266  Rmax=1.4273     4

 selected bond angles (degree)
 --------------------
H33-C1-C2=108.91               H34-C1-C2=110.18               H34-C1-H33=108.88              H35-C1-C2=111.26               
H35-C1-H33=108.05              H35-C1-H34=109.50              O3-C2-C1=109.59                C4-C2-C1=109.13                
C4-C2-O3=106.80                C5-C2-C1=114.99                C5-C2-O3=103.08                C5-C2-C4=112.77                
B9-O3-C2=108.61                H36-C4-C2=108.51               H37-C4-C2=110.14               H37-C4-H36=107.99              
H38-C4-C2=111.27               H38-C4-H36=109.00              H38-C4-H37=109.86              C6-C5-C2=114.95                
C7-C5-C2=112.84                C7-C5-C6=109.12                O8-C5-C2=103.09                O8-C5-C6=109.44                
O8-C5-C7=106.92                H39-C6-C5=110.28               H40-C6-C5=111.16               H40-C6-H39=109.57              
H41-C6-C5=108.87               H41-C6-H39=108.90              H41-C6-H40=108.01              H42-C7-C5=111.21               
H43-C7-C5=108.47               H43-C7-H42=109.04              H44-C7-C5=110.26               H44-C7-H42=109.84              
H44-C7-H43=107.94              B9-O8-C5=108.76                O8-B9-O3=112.05                C10-B9-O3=124.01               
C10-B9-O8=123.90               C11-C10-B9=119.57              C27-C10-B9=116.86              C27-C10-C11=123.56             

 selected dihedral angles (degree)
 ---------------------------------
O3-C2-C1-H33=294.44           O3-C2-C1-H34=175.08           O3-C2-C1-H35= 53.44           C4-C2-C1-H33= 51.06           
C4-C2-C1-H34=291.70           C4-C2-C1-H35=170.06           C5-C2-C1-H33=178.92           C5-C2-C1-H34= 59.55           
C5-C2-C1-H35=297.91           B9-O3-C2-C1=219.58            B9-O3-C2-C4=101.49            B9-O3-C2-C5=342.47            
H36-C4-C2-C1=299.45           H36-C4-C2-O3= 57.83           H36-C4-C2-C5=170.36           H37-C4-C2-C1=181.44           
H37-C4-C2-O3=299.83           H37-C4-C2-C5= 52.36           H38-C4-C2-C1= 59.37           H38-C4-C2-O3=177.75           
H38-C4-C2-C5=290.28           C6-C5-C2-C1=258.92            C6-C5-C2-O3=139.71            C6-C5-C2-C4= 24.92            
C7-C5-C2-C1= 24.94            C7-C5-C2-O3=265.72            C7-C5-C2-C4=150.93            O8-C5-C2-C1=139.91            
O8-C5-C2-O3= 20.69            O8-C5-C2-C4=265.90            H39-C6-C5-C2= 59.55           H39-C6-C5-C7=291.63           
H39-C6-C5-O8=174.96           H40-C6-C5-C2=297.82           H40-C6-C5-C7=169.91           H40-C6-C5-O8= 53.23           
H41-C6-C5-C2=178.96           H41-C6-C5-C7= 51.05           H41-C6-C5-O8=294.37           H42-C7-C5-C2=290.06           
H42-C7-C5-C6= 59.15           H42-C7-C5-O8=177.41           H43-C7-C5-C2=170.16           H43-C7-C5-C6=299.25           
H43-C7-C5-O8= 57.52           H44-C7-C5-C2= 52.16           H44-C7-C5-C6=181.25           H44-C7-C5-O8=299.52           
B9-O8-C5-C2=343.21            B9-O8-C5-C6=220.43            B9-O8-C5-C7=102.37            O8-B9-O3-C2=  7.99            
C10-B9-O3-C2=189.81           O3-B9-O8-C5=  6.68            C10-B9-O8-C5=184.86           C11-C10-B9-O3=186.72          
C11-C10-B9-O8=  8.75          C27-C10-B9-O3=  5.85          C27-C10-B9-O8=187.89          
           -------------------------------------------------
          |                Final Singlepoint                |
           -------------------------------------------------

          ...................................................
          :                      SETUP                      :
          :.................................................:
          :  # basis functions                 144          :
          :  # atomic orbitals                 144          :
          :  # shells                           88          :
          :  # electrons                       150          :
          :  max. iterations                   250          :
          :  Hamiltonian                  GFN2-xTB          :
          :  restarted?                      false          :
          :  GBSA solvation                  false          :
          :  PC potential                    false          :
          :  electronic temp.          300.0000000     K    :
          :  accuracy                    1.0000000          :
          :  -> integral cutoff          0.2500000E+02      :
          :  -> integral neglect         0.1000000E-07      :
          :  -> SCF convergence          0.1000000E-05 Eh   :
          :  -> wf. convergence          0.1000000E-03 e    :
          :  Broyden damping             0.4000000          :
          ...................................................

 iter      E             dE          RMSdq      gap      omega  full diag
   1    -83.3691536 -0.833692E+02  0.488E-05    2.27       0.0  T
   2    -83.3691536  0.115818E-10  0.395E-05    2.27     326.8  T
   3    -83.3691536 -0.524523E-10  0.233E-05    2.27     555.0  T

   *** convergence criteria satisfied after 3 iterations ***

         #    Occupation            Energy/Eh            Energy/eV
      -------------------------------------------------------------
         1        2.0000           -0.6884278             -18.7331
       ...           ...                  ...                  ...
        69        2.0000           -0.4021079             -10.9419
        70        2.0000           -0.3975423             -10.8177
        71        2.0000           -0.3964997             -10.7893
        72        2.0000           -0.3931652             -10.6986
        73        2.0000           -0.3913499             -10.6492
        74        2.0000           -0.3606212              -9.8130
        75        2.0000           -0.3353850              -9.1263 (HOMO)
        76                         -0.2521098              -6.8603 (LUMO)
        77                         -0.2187629              -5.9528
        78                         -0.1848821              -5.0309
        79                         -0.1406511              -3.8273
        80                         -0.0961729              -2.6170
       ...                                ...                  ...
       144                          0.6812814              18.5386
      -------------------------------------------------------------
                  HL-Gap            0.0832752 Eh            2.2660 eV
             Fermi-level           -0.2937474 Eh           -7.9933 eV

 SCC (total)                   0 d,  0 h,  0 min,  0.043 sec
 SCC setup                      ...        0 min,  0.000 sec (  0.527%)
 Dispersion                     ...        0 min,  0.000 sec (  0.886%)
 classical contributions        ...        0 min,  0.000 sec (  0.399%)
 integral evaluation            ...        0 min,  0.006 sec ( 13.919%)
 iterations                     ...        0 min,  0.008 sec ( 19.248%)
 molecular gradient             ...        0 min,  0.028 sec ( 64.237%)
 printout                       ...        0 min,  0.000 sec (  0.772%)

         :::::::::::::::::::::::::::::::::::::::::::::::::::::
         ::                     SUMMARY                     ::
         :::::::::::::::::::::::::::::::::::::::::::::::::::::
         :: total energy             -82.291802340772 Eh    ::
         :: gradient norm              0.000771748345 Eh/a0 ::
         :: HOMO-LUMO gap              2.266032746664 eV    ::
         ::.................................................::
         :: SCC energy               -83.369153573282 Eh    ::
         :: -> isotropic ES            0.147959380125 Eh    ::
         :: -> anisotropic ES          0.011922196699 Eh    ::
         :: -> anisotropic XC          0.027284408190 Eh    ::
         :: -> dispersion             -0.062718225282 Eh    ::
         :: repulsion energy           1.076547520090 Eh    ::
         :: add. restraining           0.000102485575 Eh    ::
         :: total charge              -0.000000000000 e     ::
         :::::::::::::::::::::::::::::::::::::::::::::::::::::

           -------------------------------------------------
          |                Property Printout                |
           -------------------------------------------------

    * Orbital Energies and Occupations

         #    Occupation            Energy/Eh            Energy/eV
      -------------------------------------------------------------
         1        2.0000           -0.6884278             -18.7331
       ...           ...                  ...                  ...
        63        2.0000           -0.4339918             -11.8095
        64        2.0000           -0.4324040             -11.7663
        65        2.0000           -0.4229369             -11.5087
        66        2.0000           -0.4217670             -11.4769
        67        2.0000           -0.4184874             -11.3876
        68        2.0000           -0.4161228             -11.3233
        69        2.0000           -0.4021079             -10.9419
        70        2.0000           -0.3975423             -10.8177
        71        2.0000           -0.3964997             -10.7893
        72        2.0000           -0.3931652             -10.6986
        73        2.0000           -0.3913499             -10.6492
        74        2.0000           -0.3606212              -9.8130
        75        2.0000           -0.3353850              -9.1263 (HOMO)
        76                         -0.2521098              -6.8603 (LUMO)
        77                         -0.2187629              -5.9528
        78                         -0.1848821              -5.0309
        79                         -0.1406511              -3.8273
        80                         -0.0961729              -2.6170
        81                         -0.0788740              -2.1463
        82                          0.0098151               0.2671
        83                          0.0108879               0.2963
        84                          0.0283782               0.7722
        85                          0.0297711               0.8101
        86                          0.0571314               1.5546
       ...                                ...                  ...
       144                          0.6812814              18.5386
      -------------------------------------------------------------
                  HL-Gap            0.0832752 Eh            2.2660 eV
             Fermi-level           -0.2937474 Eh           -7.9933 eV

     #   Z          covCN         q      C6AA      α(0)
     1   6 C        3.755    -0.117    22.788     6.807
     2   6 C        3.859     0.130    18.438     6.107
     3   8 O        1.638    -0.379    20.464     6.106
     4   6 C        3.755    -0.116    22.775     6.805
     5   6 C        3.859     0.130    18.442     6.107
     6   6 C        3.755    -0.117    22.802     6.809
     7   6 C        3.755    -0.115    22.761     6.803
     8   8 O        1.638    -0.375    20.372     6.093
     9   5 B        2.659     0.432    15.558     6.641
    10   6 C        3.246    -0.074    28.776     8.689
    11   6 C        2.891    -0.041    29.017     8.832
    12   6 C        2.959    -0.034    28.842     8.809
    13   1 H        0.926     0.026     2.641     2.541
    14   6 C        3.863    -0.014    20.790     6.484
    15   1 H        0.924     0.046     2.376     2.410
    16   6 C        2.865    -0.081    30.027     8.982
    17   5 B        2.662     0.431    15.558     6.639
    18   8 O        1.638    -0.370    20.293     6.081
    19   6 C        3.860     0.129    18.456     6.110
    20   6 C        3.755    -0.117    22.797     6.808
    21   6 C        3.755    -0.116    22.778     6.805
    22   6 C        3.860     0.129    18.455     6.109
    23   6 C        3.755    -0.116    22.783     6.806
    24   6 C        3.755    -0.117    22.805     6.809
    25   8 O        1.638    -0.371    20.302     6.082
    26   6 C        2.896    -0.028    28.689     8.782
    27   6 C        3.861    -0.006    20.653     6.463
    28   1 H        0.925     0.047     2.357     2.401
    29   6 C        3.274    -0.018    27.080     8.385
    30   6 C        2.888    -0.040    28.990     8.827
    31   6 C        2.960    -0.029    28.726     8.791
    32   1 H        0.926     0.028     2.621     2.531
    33   1 H        0.925     0.054     2.272     2.357
    34   1 H        0.925     0.039     2.458     2.452
    35   1 H        0.925     0.051     2.308     2.376
    36   1 H        0.925     0.052     2.301     2.372
    37   1 H        0.925     0.043     2.403     2.424
    38   1 H        0.925     0.042     2.421     2.433
    39   1 H        0.925     0.040     2.455     2.450
    40   1 H        0.925     0.052     2.293     2.368
    41   1 H        0.925     0.054     2.268     2.355
    42   1 H        0.925     0.042     2.419     2.432
    43   1 H        0.925     0.052     2.297     2.370
    44   1 H        0.925     0.042     2.417     2.431
    45   1 H        0.925     0.034     2.526     2.486
    46   1 H        0.925     0.054     2.269     2.355
    47   1 H        0.925     0.040     2.455     2.450
    48   1 H        0.925     0.052     2.296     2.369
    49   1 H        0.925     0.052     2.295     2.369
    50   1 H        0.925     0.044     2.399     2.422
    51   1 H        0.925     0.042     2.419     2.432
    52   1 H        0.925     0.043     2.415     2.430
    53   1 H        0.925     0.052     2.291     2.367
    54   1 H        0.925     0.044     2.400     2.422
    55   1 H        0.925     0.040     2.452     2.449
    56   1 H        0.925     0.052     2.293     2.368
    57   1 H        0.925     0.054     2.265     2.354
    58   1 H        0.925     0.038     2.480     2.463
    59   1 H        0.926     0.036     2.498     2.471
    60   1 H        0.925     0.025     2.664     2.552

 Mol. C6AA /au·bohr⁶  :      33274.124719
 Mol. C8AA /au·bohr⁸  :     771738.480975
 Mol. α(0) /au        :        277.034920


Wiberg/Mayer (AO) data.
largest (>0.10) Wiberg bond orders for each atom

 ---------------------------------------------------------------------------
     #   Z sym  total        # sym  WBO       # sym  WBO       # sym  WBO
 ---------------------------------------------------------------------------
     1   6 C    3.994 --     2 C    0.997    34 H    0.985    33 H    0.983
                            35 H    0.982
     2   6 C    3.943 --     1 C    0.997     4 C    0.990     3 O    0.954
                             5 C    0.937
     3   8 O    2.216 --     9 B    1.112     2 C    0.954
     4   6 C    3.994 --     2 C    0.990    38 H    0.984    37 H    0.984
                            36 H    0.983
     5   6 C    3.943 --     6 C    0.997     7 C    0.990     8 O    0.953
                             2 C    0.937
     6   6 C    3.994 --     5 C    0.997    39 H    0.985    41 H    0.983
                            40 H    0.982
     7   6 C    3.994 --     5 C    0.990    42 H    0.984    44 H    0.984
                            43 H    0.983
     8   8 O    2.224 --     9 B    1.120     5 C    0.953
     9   5 B    3.388 --     8 O    1.120     3 O    1.112    10 C    1.026
    10   6 C    3.924 --    11 C    1.291     9 B    1.026    27 C    0.924
                            29 C    0.426    31 C    0.135
    11   6 C    3.991 --    12 C    1.639    10 C    1.291    45 H    0.961
    12   6 C    3.973 --    11 C    1.639    13 H    0.971    14 C    0.970
                            31 C    0.177    29 C    0.124
    13   1 H    0.999 --    12 C    0.971
    14   6 C    3.993 --    16 C    0.990    31 C    0.979    12 C    0.970
                            15 H    0.970
    15   1 H    0.998 --    14 C    0.970
    16   6 C    3.976 --    26 C    1.847    17 B    0.999    14 C    0.990
    17   5 B    3.376 --    25 O    1.131    18 O    1.129    16 C    0.999
    18   8 O    2.235 --    17 B    1.129    19 C    0.953
    19   6 C    3.943 --    20 C    0.997    21 C    0.991    18 O    0.953
                            22 C    0.937
    20   6 C    3.994 --    19 C    0.997    47 H    0.985    46 H    0.983
                            48 H    0.982
    21   6 C    3.994 --    19 C    0.991    51 H    0.984    50 H    0.984
                            49 H    0.983
    22   6 C    3.943 --    24 C    0.996    23 C    0.990    25 O    0.953
                            19 C    0.937
    23   6 C    3.995 --    22 C    0.990    52 H    0.984    54 H    0.984
                            53 H    0.983
    24   6 C    3.994 --    22 C    0.996    55 H    0.985    57 H    0.983
                            56 H    0.982
    25   8 O    2.235 --    17 B    1.131    22 C    0.953
    26   6 C    3.988 --    16 C    1.847    27 C    1.027    58 H    0.966
    27   6 C    3.987 --    26 C    1.027    29 C    0.970    28 H    0.968
                            10 C    0.924
    28   1 H    0.998 --    27 C    0.968
    29   6 C    3.942 --    30 C    1.336    59 H    0.973    27 C    0.970
                            10 C    0.426    12 C    0.124
    30   6 C    3.991 --    31 C    1.607    29 C    1.336    60 H    0.963
    31   6 C    3.961 --    30 C    1.607    14 C    0.979    32 H    0.972
                            12 C    0.177    10 C    0.135
    32   1 H    0.999 --    31 C    0.972
    33   1 H    0.997 --     1 C    0.983
    34   1 H    0.998 --     1 C    0.985
    35   1 H    0.997 --     1 C    0.982
    36   1 H    0.997 --     4 C    0.983
    37   1 H    0.998 --     4 C    0.984
    38   1 H    0.998 --     4 C    0.984
    39   1 H    0.998 --     6 C    0.985
    40   1 H    0.997 --     6 C    0.982
    41   1 H    0.997 --     6 C    0.983
    42   1 H    0.998 --     7 C    0.984
    43   1 H    0.997 --     7 C    0.983
    44   1 H    0.998 --     7 C    0.984
    45   1 H    0.999 --    11 C    0.961
    46   1 H    0.997 --    20 C    0.983
    47   1 H    0.998 --    20 C    0.985
    48   1 H    0.997 --    20 C    0.982
    49   1 H    0.997 --    21 C    0.983
    50   1 H    0.998 --    21 C    0.984
    51   1 H    0.998 --    21 C    0.984
    52   1 H    0.998 --    23 C    0.984
    53   1 H    0.997 --    23 C    0.983
    54   1 H    0.998 --    23 C    0.984
    55   1 H    0.998 --    24 C    0.985
    56   1 H    0.997 --    24 C    0.982
    57   1 H    0.997 --    24 C    0.983
    58   1 H    0.998 --    26 C    0.966
    59   1 H    0.998 --    29 C    0.973
    60   1 H    0.999 --    30 C    0.963
 ---------------------------------------------------------------------------

Topologies differ in total number of bonds
Writing topology from bond orders to xtbtopo.mol

molecular dipole:
                 x           y           z       tot (Debye)
 q only:       -0.305      -0.353       0.043
   full:       -0.162      -0.416      -0.091       1.159
molecular quadrupole (traceless):
                xx          xy          yy          xz          yz          zz
 q only:      -38.743      25.287      40.652     -30.967     -16.878      -1.910
  q+dip:      -36.616      12.210      51.266     -23.722      -5.000     -14.651
   full:      -37.055      11.079      52.942     -24.961      -6.448     -15.888

           -------------------------------------------------
          |                Geometry Summary                 |
           -------------------------------------------------

      molecular mass/u    :      382.1099696
   center of mass at/Å    :        2.9380240     -35.9461917      21.8380030
  moments of inertia/u·Å² :        0.1175375E+04   0.6885878E+04   0.7145730E+04
rotational constants/cm⁻¹ :        0.1434235E-01   0.2448146E-02   0.2359120E-02

 * 57 selected distances

     #   Z          #   Z                                           value/Å
     1   6 C        2   6 C                                       1.5268382
     2   6 C        3   8 O                                       1.4266329
     2   6 C        4   6 C                                       1.5342253
     5   6 C        6   6 C                                       1.5269521
     5   6 C        7   6 C                                       1.5340869
     5   6 C        8   8 O                                       1.4269232
     3   8 O        9   5 B                                       1.3719428
     8   8 O        9   5 B                                       1.3691661
     9   5 B       10   6 C                                       1.5471238
    10   6 C       11   6 C                                       1.4121283
    11   6 C       12   6 C                                       1.3555346
    12   6 C       13   1 H                                       1.0811411
    14   6 C       15   1 H                                       1.0912823
    16   6 C       17   5 B                                       1.5601190 (max)
    17   5 B       18   8 O                                       1.3679559
    18   8 O       19   6 C                                       1.4268772
    19   6 C       20   6 C                                       1.5268800
    19   6 C       21   6 C                                       1.5341153
    22   6 C       23   6 C                                       1.5340181
    22   6 C       24   6 C                                       1.5269856
    17   5 B       25   8 O                                       1.3670322
    22   6 C       25   8 O                                       1.4272652
    16   6 C       26   6 C                                       1.3332277
    26   6 C       27   6 C                                       1.4826425
    27   6 C       28   1 H                                       1.0892313
    27   6 C       29   6 C                                       1.4969840
    29   6 C       30   6 C                                       1.3981832
    30   6 C       31   6 C                                       1.3594202
    31   6 C       32   1 H                                       1.0810898
     1   6 C       33   1 H                                       1.0872637
     1   6 C       34   1 H                                       1.0866352
     1   6 C       35   1 H                                       1.0852363
     4   6 C       36   1 H                                       1.0877279
     4   6 C       37   1 H                                       1.0872340
     4   6 C       38   1 H                                       1.0857829
     6   6 C       39   1 H                                       1.0866885
     6   6 C       40   1 H                                       1.0851149
     6   6 C       41   1 H                                       1.0871773
     7   6 C       42   1 H                                       1.0858669
     7   6 C       43   1 H                                       1.0876062
     7   6 C       44   1 H                                       1.0872045
    11   6 C       45   1 H                                       1.0842266
    20   6 C       46   1 H                                       1.0872288
    20   6 C       47   1 H                                       1.0866907
    20   6 C       48   1 H                                       1.0851511
    21   6 C       49   1 H                                       1.0876438
    21   6 C       50   1 H                                       1.0871713
    21   6 C       51   1 H                                       1.0858593
    23   6 C       52   1 H                                       1.0859089
    23   6 C       53   1 H                                       1.0875395
    23   6 C       54   1 H                                       1.0870777
    24   6 C       55   1 H                                       1.0866889
    24   6 C       56   1 H                                       1.0850937
    24   6 C       57   1 H                                       1.0871462
    26   6 C       58   1 H                                       1.0817620
    29   6 C       59   1 H                                       1.0787254 (min)
    30   6 C       60   1 H                                       1.0847770

 * 5 distinct bonds (by element types)

   Z      Z             #   av. dist./Å        max./Å        min./Å
   1 H    6 C          32     1.0859679     1.0912823     1.0787254
   5 B    6 C           2     1.5536214     1.5601190     1.5471238
   6 C    6 C          15     1.4721481     1.5342253     1.3332277
   5 B    8 O           4     1.3690242     1.3719428     1.3670322
   6 C    8 O           4     1.4269246     1.4272652     1.4266329


optimized geometry written to: xtbopt.xyz


           -------------------------------------------------
          | TOTAL ENERGY              -82.291802340772 Eh   |
          | GRADIENT NORM               0.000771748345 Eh/α |
          | HOMO-LUMO GAP               2.266032746664 eV   |
           -------------------------------------------------

------------------------------------------------------------------------
 * finished run on 2022/07/09 at 18:33:30.170     
------------------------------------------------------------------------
 total:
 * wall-time:     0 d,  0 h,  0 min,  1.538 sec
 *  cpu-time:     0 d,  0 h,  0 min,  1.536 sec
 * ratio c/w:     0.999 speedup
 SCF:
 * wall-time:     0 d,  0 h,  0 min,  0.071 sec
 *  cpu-time:     0 d,  0 h,  0 min,  0.071 sec
 * ratio c/w:     0.998 speedup
 ANC optimizer:
 * wall-time:     0 d,  0 h,  0 min,  1.455 sec
 *  cpu-time:     0 d,  0 h,  0 min,  1.453 sec
 * ratio c/w:     0.999 speedup

