      -----------------------------------------------------------      
     |                   =====================                   |     
     |                           x T B                           |     
     |                   =====================                   |     
     |                         S. Grimme                         |     
     |          Mulliken Center for Theoretical Chemistry        |     
     |                    University of Bonn                     |     
      -----------------------------------------------------------      

   * xtb version 6.5.0 (homebrew) compiled by 'nhattrup@GPGGRP-SHANNON.CHEME.CMU.EDU' on 

   xtb is free software: you can redistribute it and/or modify it under
   the terms of the GNU Lesser General Public License as published by
   the Free Software Foundation, either version 3 of the License, or
   (at your option) any later version.
   
   xtb is distributed in the hope that it will be useful,
   but WITHOUT ANY WARRANTY; without even the implied warranty of
   MERCHANTABILITY or FITNESS FOR A PARTICULAR PURPOSE.  See the
   GNU Lesser General Public License for more details.
   
   Cite this work as:
   * C. Bannwarth, E. Caldeweyher, S. Ehlert, A. Hansen, P. Pracht,
     J. Seibert, S. Spicher, S. Grimme, WIREs Comput. Mol. Sci., 2020, 11,
     e01493. DOI: 10.1002/wcms.1493
   
   for GFN2-xTB:
   * C. Bannwarth, S. Ehlert and S. Grimme., J. Chem. Theory Comput., 2019,
     15, 1652-1671. DOI: 10.1021/acs.jctc.8b01176
   for GFN1-xTB:
   * S. Grimme, C. Bannwarth, P. Shushkov, J. Chem. Theory Comput., 2017,
     13, 1989-2009. DOI: 10.1021/acs.jctc.7b00118
   for GFN0-xTB:
   * P. Pracht, E. Caldeweyher, S. Ehlert, S. Grimme, ChemRxiv, 2019, preprint.
     DOI: 10.26434/chemrxiv.8326202.v1
   for GFN-FF:
   * S. Spicher and S. Grimme, Angew. Chem. Int. Ed., 2020, 59, 15665-15673.
     DOI: 10.1002/anie.202004239
   
   for ALPB and GBSA implicit solvation:
   * S. Ehlert, M. Stahn, S. Spicher, S. Grimme, J. Chem. Theory Comput.,
     2021, 17, 4250-4261. DOI: 10.1021/acs.jctc.1c00471
   
   for DFT-D4:
   * E. Caldeweyher, C. Bannwarth and S. Grimme, J. Chem. Phys., 2017,
     147, 034112. DOI: 10.1063/1.4993215
   * E. Caldeweyher, S. Ehlert, A. Hansen, H. Neugebauer, S. Spicher,
     C. Bannwarth and S. Grimme, J. Chem. Phys., 2019, 150, 154122.
     DOI: 10.1063/1.5090222
   * E. Caldeweyher, J.-M. Mewes, S. Ehlert and S. Grimme, Phys. Chem. Chem. Phys.
     2020, 22, 8499-8512. DOI: 10.1039/D0CP00502A
   
   for sTDA-xTB:
   * S. Grimme and C. Bannwarth, J. Chem. Phys., 2016, 145, 054103.
     DOI: 10.1063/1.4959605
   
   in the mass-spec context:
   * V. Asgeirsson, C. Bauer and S. Grimme, Chem. Sci., 2017, 8, 4879.
     DOI: 10.1039/c7sc00601b
   * J. Koopman and S. Grimme, ACS Omega 2019, 4, 12, 15120-15133.
     DOI: 10.1021/acsomega.9b02011
   
   for metadynamics refer to:
   * S. Grimme, J. Chem. Theory Comput., 2019, 155, 2847-2862
     DOI: 10.1021/acs.jctc.9b00143
   
   for SPH calculations refer to:
   * S. Spicher and S. Grimme, J. Chem. Theory Comput., 2021, 17, 1701-1714
     DOI: 10.1021/acs.jctc.0c01306
   
   with help from (in alphabetical order)
   P. Atkinson, C. Bannwarth, F. Bohle, G. Brandenburg, E. Caldeweyher
   M. Checinski, S. Dohm, S. Ehlert, S. Ehrlich, I. Gerasimov, C. Hölzer
   A. Katbashev, J. Koopman, C. Lavigne, S. Lehtola, F. März, M. Müller,
   F. Musil, H. Neugebauer, J. Pisarek, C. Plett, P. Pracht, F. Pultar,
   J. Seibert, P. Shushkov, S. Spicher, M. Stahn, M. Steiner, T. Strunk,
   J. Stückrath, T. Rose, and J. Unsleber
   
 * started run on 2022/07/09 at 18:33:42.582     

           -------------------------------------------------
          |                Calculation Setup                |
           -------------------------------------------------

          program call               : /opt/homebrew/bin/xtb bvl_bpin2_scan_8-8_xtb.xyz --chrg 0 --uhf 0 --opt --input xcontrol_bvl_bpin2_scan_8-8_xtb
          coordinate file            : bvl_bpin2_scan_8-8_xtb.xyz
          omp threads                :                     1

   ID    Z sym.   atoms
    1    6 C      1, 2, 4-7, 10-12, 14, 16, 19-24, 26, 27, 29-31
    2    8 O      3, 8, 18, 25
    3    5 B      9, 17
    4    1 H      13, 15, 28, 32-60
constraining bond 12 31 to    2.3889000 Å, actual value:    2.2789899 Å
constraining bond 10 29 to    1.6111000 Å, actual value:    1.7176185 Å

           -------------------------------------------------
          |                 G F N 2 - x T B                 |
           -------------------------------------------------

        Reference                      10.1021/acs.jctc.8b01176
      * Hamiltonian:
        H0-scaling (s, p, d)           1.850000    2.230000    2.230000
        zeta-weighting                 0.500000
      * Dispersion:
        s8                             2.700000
        a1                             0.520000
        a2                             5.000000
        s9                             5.000000
      * Repulsion:
        kExp                           1.500000    1.000000
        rExp                           1.000000
      * Coulomb:
        alpha                          2.000000
        third order                    shell-resolved
        anisotropic                    true
        a3                             3.000000
        a5                             4.000000
        cn-shift                       1.200000
        cn-exp                         4.000000
        max-rad                        5.000000


          ...................................................
          :                      SETUP                      :
          :.................................................:
          :  # basis functions                 144          :
          :  # atomic orbitals                 144          :
          :  # shells                           88          :
          :  # electrons                       150          :
          :  max. iterations                   250          :
          :  Hamiltonian                  GFN2-xTB          :
          :  restarted?                      false          :
          :  GBSA solvation                  false          :
          :  PC potential                    false          :
          :  electronic temp.          300.0000000     K    :
          :  accuracy                    1.0000000          :
          :  -> integral cutoff          0.2500000E+02      :
          :  -> integral neglect         0.1000000E-07      :
          :  -> SCF convergence          0.1000000E-05 Eh   :
          :  -> wf. convergence          0.1000000E-03 e    :
          :  Broyden damping             0.4000000          :
          ...................................................

 iter      E             dE          RMSdq      gap      omega  full diag
   1    -82.9545280 -0.829545E+02  0.473E+00    3.50       0.0  T
   2    -83.3444363 -0.389908E+00  0.290E+00    3.07       1.0  T
   3    -83.3584545 -0.140182E-01  0.139E+00    3.41       1.0  T
   4    -83.3819812 -0.235268E-01  0.408E-01    3.27       1.0  T
   5    -83.3925821 -0.106009E-01  0.152E-01    3.33       1.0  T
   6    -83.3925113  0.708629E-04  0.903E-02    3.33       1.0  T
   7    -83.3927467 -0.235435E-03  0.278E-02    3.32       1.0  T
   8    -83.3927694 -0.226529E-04  0.111E-02    3.32       1.2  T
   9    -83.3927734 -0.405335E-05  0.551E-03    3.32       2.3  T
  10    -83.3927743 -0.882700E-06  0.250E-03    3.32       5.2  T
  11    -83.3927744 -0.939529E-07  0.748E-04    3.32      17.3  T
  12    -83.3927744 -0.230728E-07  0.323E-04    3.32      39.9  T

   *** convergence criteria satisfied after 12 iterations ***

         #    Occupation            Energy/Eh            Energy/eV
      -------------------------------------------------------------
         1        2.0000           -0.6917183             -18.8226
       ...           ...                  ...                  ...
        69        2.0000           -0.4030295             -10.9670
        70        2.0000           -0.4001551             -10.8888
        71        2.0000           -0.3973092             -10.8113
        72        2.0000           -0.3951610             -10.7529
        73        2.0000           -0.3868155             -10.5258
        74        2.0000           -0.3521270              -9.5819
        75        2.0000           -0.3475706              -9.4579 (HOMO)
        76                         -0.2255230              -6.1368 (LUMO)
        77                         -0.2003985              -5.4531
        78                         -0.1843914              -5.0175
        79                         -0.1417182              -3.8563
        80                         -0.0955206              -2.5992
       ...                                ...                  ...
       144                          0.6810869              18.5333
      -------------------------------------------------------------
                  HL-Gap            0.1220476 Eh            3.3211 eV
             Fermi-level           -0.2865468 Eh           -7.7973 eV

 SCC (total)                   0 d,  0 h,  0 min,  0.068 sec
 SCC setup                      ...        0 min,  0.000 sec (  0.353%)
 Dispersion                     ...        0 min,  0.000 sec (  0.687%)
 classical contributions        ...        0 min,  0.000 sec (  0.262%)
 integral evaluation            ...        0 min,  0.006 sec (  9.036%)
 iterations                     ...        0 min,  0.033 sec ( 48.619%)
 molecular gradient             ...        0 min,  0.028 sec ( 40.526%)
 printout                       ...        0 min,  0.000 sec (  0.507%)

         :::::::::::::::::::::::::::::::::::::::::::::::::::::
         ::                     SUMMARY                     ::
         :::::::::::::::::::::::::::::::::::::::::::::::::::::
         :: total energy             -82.145632453086 Eh    ::
         :: gradient norm              1.679749705051 Eh/a0 ::
         :: HOMO-LUMO gap              3.321083858040 eV    ::
         ::.................................................::
         :: SCC energy               -83.392774405671 Eh    ::
         :: -> isotropic ES            0.148253905588 Eh    ::
         :: -> anisotropic ES          0.011368914734 Eh    ::
         :: -> anisotropic XC          0.026877388980 Eh    ::
         :: -> dispersion             -0.061883468758 Eh    ::
         :: repulsion energy           1.079157864171 Eh    ::
         :: add. restraining           0.167314571692 Eh    ::
         :: total charge              -0.000000000000 e     ::
         :::::::::::::::::::::::::::::::::::::::::::::::::::::

      ----------------------------------------------------------- 
     |                   =====================                   |
     |                        A N C O P T                        |
     |                   =====================                   |
     |               Approximate Normal Coordinate               |
     |                Rational Function Optimizer                |
      ----------------------------------------------------------- 

          ...................................................
          :                      SETUP                      :
          :.................................................:
          :   optimization level            normal          :
          :   max. optcycles                   200          :
          :   ANC micro-cycles                  20          :
          :   degrees of freedom               174          :
          :.................................................:
          :   RF solver                   davidson          :
          :   write xtbopt.log                true          :
          :   linear?                        false          :
          :   energy convergence         0.5000000E-05 Eh   :
          :   grad. convergence          0.1000000E-02 Eh/α :
          :   maximium RF displ.         1.0000000          :
          :   Hlow (freq-cutoff)         0.1000000E-01      :
          :   Hmax (freq-cutoff)         5.0000000          :
          :   S6 in model hess.         20.0000000          :
          ...................................................

generating ANC from model Hessian ...
Using Lindh-Hessian (1995)
 Shifting diagonal of input Hessian by   0.20429781521126883     
 Lowest  eigenvalues of input Hessian
    0.010000    0.161392    0.000000    0.000000    0.000000    0.000000
    0.000000    0.000000    0.204420    0.204440    0.204592    0.205983
    0.206196    0.207178    0.207592    0.207675    0.208959    0.209423
 Highest eigenvalues
    1.921229    2.107942    2.110984    2.152117    8.926896    9.126810


........................................................................
.............................. CYCLE    1 ..............................
........................................................................
   1    -83.3927744 -0.833928E+02  0.154E-04    3.32       0.0  T
   2    -83.3927744 -0.123558E-08  0.956E-05    3.32     135.1  T
   3    -83.3927744 -0.398273E-09  0.442E-05    3.32     291.8  T
     SCC iter.                  ...        0 min,  0.009 sec
     gradient                   ...        0 min,  0.028 sec
 * total energy  :   -82.1456325 Eh     change       -0.1422308E-08 Eh
   gradient norm :     1.6797507 Eh/α   predicted     0.0000000E+00 (-100.00%)
   displ. norm   :     0.3114583 α      lambda       -0.5163605E+00
   maximum displ.:     0.2434983 α      in ANC's #174, #173, #127, ...

........................................................................
.............................. CYCLE    2 ..............................
........................................................................
   1    -83.3997056 -0.833997E+02  0.293E-01    3.56       0.0  T
   2    -83.3997000  0.559421E-05  0.212E-01    3.56       1.0  T
   3    -83.3998798 -0.179760E-03  0.138E-01    3.56       1.0  T
   4    -83.4004448 -0.565002E-03  0.208E-02    3.55       1.0  T
   5    -83.4004653 -0.204657E-04  0.703E-03    3.56       1.8  T
   6    -83.4004672 -0.194124E-05  0.296E-03    3.56       4.4  T
   7    -83.4004674 -0.153802E-06  0.934E-04    3.56      13.8  T
   8    -83.4004674 -0.247992E-08  0.296E-04    3.56      43.6  T
     SCC iter.                  ...        0 min,  0.022 sec
     gradient                   ...        0 min,  0.028 sec
 * total energy  :   -82.2713347 Eh     change       -0.1257023E+00 Eh
   gradient norm :     0.8811779 Eh/α   predicted    -0.2833438E+00 ( 125.41%)
   displ. norm   :     0.1073239 α      lambda       -0.9195919E-01
   maximum displ.:     0.0833040 α      in ANC's #174, #173, #36, ...

........................................................................
.............................. CYCLE    3 ..............................
........................................................................
   1    -83.3972586 -0.833973E+02  0.105E-01    3.49       0.0  T
   2    -83.3972647 -0.610053E-05  0.762E-02    3.49       1.0  T
   3    -83.3972966 -0.319632E-04  0.512E-02    3.49       1.0  T
   4    -83.3973717 -0.750465E-04  0.802E-03    3.49       1.6  T
   5    -83.3973745 -0.280871E-05  0.309E-03    3.49       4.2  T
   6    -83.3973749 -0.417853E-06  0.122E-03    3.49      10.6  T
   7    -83.3973749 -0.224082E-07  0.326E-04    3.49      39.6  T
   8    -83.3973749 -0.233584E-09  0.107E-04    3.49     121.2  T
     SCC iter.                  ...        0 min,  0.022 sec
     gradient                   ...        0 min,  0.028 sec
 * total energy  :   -82.3179791 Eh     change       -0.4664438E-01 Eh
   gradient norm :     0.0261119 Eh/α   predicted    -0.4650936E-01 (  -0.29%)
   displ. norm   :     0.0384867 α      lambda       -0.7236853E-03
   maximum displ.:     0.0169581 α      in ANC's #36, #28, #37, ...

........................................................................
.............................. CYCLE    4 ..............................
........................................................................
   1    -83.3963605 -0.833964E+02  0.250E-02    3.48       0.0  T
   2    -83.3963622 -0.169213E-05  0.157E-02    3.48       1.0  T
   3    -83.3963581  0.417957E-05  0.116E-02    3.48       1.1  T
   4    -83.3963638 -0.578787E-05  0.220E-03    3.48       5.9  T
   5    -83.3963641 -0.248775E-06  0.545E-04    3.48      23.7  T
   6    -83.3963641 -0.112804E-07  0.274E-04    3.48      47.1  T
     SCC iter.                  ...        0 min,  0.017 sec
     gradient                   ...        0 min,  0.028 sec
 * total energy  :   -82.3185682 Eh     change       -0.5891445E-03 Eh
   gradient norm :     0.0148357 Eh/α   predicted    -0.3623557E-03 ( -38.49%)
   displ. norm   :     0.1323581 α      lambda       -0.1228589E-02
   maximum displ.:     0.0771816 α      in ANC's #1, #36, #28, ...

........................................................................
.............................. CYCLE    5 ..............................
........................................................................
   1    -83.3941960 -0.833942E+02  0.794E-02    3.45       0.0  T
   2    -83.3942026 -0.660670E-05  0.480E-02    3.45       1.0  T
   3    -83.3941590  0.436212E-04  0.287E-02    3.45       1.0  T
   4    -83.3942074 -0.483997E-04  0.439E-03    3.45       2.9  T
   5    -83.3942084 -0.101457E-05  0.112E-03    3.45      11.5  T
   6    -83.3942084 -0.273343E-07  0.646E-04    3.45      20.0  T
   7    -83.3942084 -0.800860E-08  0.202E-04    3.45      63.9  T
     SCC iter.                  ...        0 min,  0.019 sec
     gradient                   ...        0 min,  0.028 sec
 * total energy  :   -82.3189743 Eh     change       -0.4060155E-03 Eh
   gradient norm :     0.0194547 Eh/α   predicted    -0.6250016E-03 (  53.94%)
   displ. norm   :     0.3528443 α      lambda       -0.2465263E-02
   maximum displ.:     0.2891545 α      in ANC's #1, #36, #28, ...

........................................................................
.............................. CYCLE    6 ..............................
........................................................................
   1    -83.3872356 -0.833872E+02  0.208E-01    3.39       0.0  T
   2    -83.3872548 -0.191369E-04  0.124E-01    3.40       1.0  T
   3    -83.3871722  0.826110E-04  0.406E-02    3.40       1.0  T
   4    -83.3872615 -0.893598E-04  0.764E-03    3.40       1.7  T
   5    -83.3872643 -0.274282E-05  0.280E-03    3.40       4.6  T
   6    -83.3872644 -0.135743E-06  0.160E-03    3.40       8.1  T
   7    -83.3872645 -0.758347E-07  0.344E-04    3.40      37.5  T
   8    -83.3872645 -0.213760E-08  0.137E-04    3.40      94.0  T
     SCC iter.                  ...        0 min,  0.022 sec
     gradient                   ...        0 min,  0.028 sec
 * total energy  :   -82.3159893 Eh     change        0.2984983E-02 Eh
   gradient norm :     0.0754105 Eh/α   predicted    -0.1385771E-02 (-146.42%)
   displ. norm   :     0.2330370 α      lambda       -0.7079146E-02
   maximum displ.:     0.1963198 α      in ANC's #1, #36, #28, ...

........................................................................
.............................. CYCLE    7 ..............................
........................................................................
   1    -83.3954363 -0.833954E+02  0.140E-01    3.45       0.0  T
   2    -83.3954482 -0.118711E-04  0.838E-02    3.45       1.0  T
   3    -83.3954304  0.177989E-04  0.191E-02    3.45       1.0  T
   4    -83.3954498 -0.194103E-04  0.560E-03    3.45       2.3  T
   5    -83.3954513 -0.144951E-05  0.177E-03    3.45       7.3  T
   6    -83.3954513 -0.103309E-07  0.111E-03    3.45      11.6  T
   7    -83.3954513 -0.511664E-07  0.280E-04    3.45      46.1  T
   8    -83.3954513 -0.161356E-08  0.895E-05    3.45     144.3  T
     SCC iter.                  ...        0 min,  0.022 sec
     gradient                   ...        0 min,  0.027 sec
 * total energy  :   -82.3194955 Eh     change       -0.3506179E-02 Eh
   gradient norm :     0.0330406 Eh/α   predicted    -0.3735000E-02 (   6.53%)
   displ. norm   :     0.0276224 α      lambda       -0.3548687E-03
   maximum displ.:     0.0203843 α      in ANC's #1, #28, #108, ...

........................................................................
.............................. CYCLE    8 ..............................
........................................................................
   1    -83.3964778 -0.833965E+02  0.173E-02    3.45       0.0  T
   2    -83.3964786 -0.769396E-06  0.112E-02    3.44       1.2  T
   3    -83.3964773  0.126180E-05  0.775E-03    3.45       1.7  T
   4    -83.3964795 -0.218272E-05  0.171E-03    3.45       7.6  T
   5    -83.3964796 -0.151147E-06  0.436E-04    3.45      29.6  T
   6    -83.3964796 -0.848399E-08  0.198E-04    3.45      65.3  T
     SCC iter.                  ...        0 min,  0.017 sec
     gradient                   ...        0 min,  0.027 sec
 * total energy  :   -82.3196946 Eh     change       -0.1991810E-03 Eh
   gradient norm :     0.0153993 Eh/α   predicted    -0.1793225E-03 (  -9.97%)
   displ. norm   :     0.0568652 α      lambda       -0.2540342E-03
   maximum displ.:     0.0315002 α      in ANC's #28, #36, #37, ...

........................................................................
.............................. CYCLE    9 ..............................
........................................................................
   1    -83.3973446 -0.833973E+02  0.274E-02    3.44       0.0  T
   2    -83.3973449 -0.275216E-06  0.162E-02    3.44       1.0  T
   3    -83.3973440  0.888541E-06  0.401E-03    3.44       3.2  T
   4    -83.3973450 -0.942108E-06  0.109E-03    3.44      11.9  T
   5    -83.3973450 -0.661819E-07  0.256E-04    3.44      50.4  T
   6    -83.3973450  0.392646E-10  0.138E-04    3.44      93.7  T
     SCC iter.                  ...        0 min,  0.016 sec
     gradient                   ...        0 min,  0.028 sec
 * total energy  :   -82.3199172 Eh     change       -0.2225264E-03 Eh
   gradient norm :     0.0121306 Eh/α   predicted    -0.1271842E-03 ( -42.85%)
   displ. norm   :     0.2146102 α      lambda       -0.7518947E-03
   maximum displ.:     0.1215638 α      in ANC's #28, #36, #37, ...

........................................................................
.............................. CYCLE   10 ..............................
........................................................................
   1    -83.3991132 -0.833991E+02  0.102E-01    3.42       0.0  T
   2    -83.3991161 -0.288672E-05  0.603E-02    3.41       1.0  T
   3    -83.3990918  0.243104E-04  0.206E-02    3.42       1.0  T
   4    -83.3991179 -0.261478E-04  0.331E-03    3.42       3.9  T
   5    -83.3991185 -0.550554E-06  0.936E-04    3.41      13.8  T
   6    -83.3991185 -0.795382E-10  0.501E-04    3.41      25.8  T
     SCC iter.                  ...        0 min,  0.016 sec
     gradient                   ...        0 min,  0.028 sec
 * total energy  :   -82.3203420 Eh     change       -0.4248360E-03 Eh
   gradient norm :     0.0061682 Eh/α   predicted    -0.3899598E-03 (  -8.21%)
   displ. norm   :     0.0452023 α      lambda       -0.7377424E-04
   maximum displ.:     0.0275539 α      in ANC's #28, #36, #17, ...

........................................................................
.............................. CYCLE   11 ..............................
........................................................................
   1    -83.3998420 -0.833998E+02  0.204E-02    3.41       0.0  T
   2    -83.3998420 -0.759307E-07  0.122E-02    3.41       1.1  T
   3    -83.3998401  0.192241E-05  0.581E-03    3.41       2.2  T
   4    -83.3998422 -0.208164E-05  0.511E-04    3.41      25.3  T
   5    -83.3998422 -0.924659E-08  0.202E-04    3.41      63.8  T
   6    -83.3998422 -0.326352E-09  0.130E-04    3.41      99.0  T
     SCC iter.                  ...        0 min,  0.016 sec
     gradient                   ...        0 min,  0.028 sec
 * total energy  :   -82.3204023 Eh     change       -0.6033124E-04 Eh
   gradient norm :     0.0048271 Eh/α   predicted    -0.3720554E-04 ( -38.33%)
   displ. norm   :     0.0779540 α      lambda       -0.1381438E-03
   maximum displ.:     0.0478940 α      in ANC's #28, #17, #14, ...

........................................................................
.............................. CYCLE   12 ..............................
........................................................................
   1    -83.4013748 -0.834014E+02  0.334E-02    3.41       0.0  T
   2    -83.4013749 -0.130305E-06  0.203E-02    3.40       1.0  T
   3    -83.4013665  0.844693E-05  0.121E-02    3.40       1.1  T
   4    -83.4013757 -0.923511E-05  0.790E-04    3.40      16.3  T
   5    -83.4013757 -0.199033E-07  0.356E-04    3.40      36.2  T
   6    -83.4013757 -0.191933E-08  0.222E-04    3.40      58.1  T
     SCC iter.                  ...        0 min,  0.016 sec
     gradient                   ...        0 min,  0.028 sec
 * total energy  :   -82.3204941 Eh     change       -0.9174157E-04 Eh
   gradient norm :     0.0032050 Eh/α   predicted    -0.7044210E-04 ( -23.22%)
   displ. norm   :     0.0424493 α      lambda       -0.5561515E-04
   maximum displ.:     0.0244930 α      in ANC's #28, #17, #14, ...

........................................................................
.............................. CYCLE   13 ..............................
........................................................................
   1    -83.4020703 -0.834021E+02  0.170E-02    3.40       0.0  T
   2    -83.4020703 -0.283121E-07  0.105E-02    3.40       1.2  T
   3    -83.4020677  0.261447E-05  0.673E-03    3.40       1.9  T
   4    -83.4020706 -0.288943E-05  0.502E-04    3.40      25.7  T
   5    -83.4020706 -0.109167E-07  0.186E-04    3.40      69.6  T
   6    -83.4020706 -0.375309E-09  0.831E-05    3.40     155.3  T
     SCC iter.                  ...        0 min,  0.016 sec
     gradient                   ...        0 min,  0.028 sec
 * total energy  :   -82.3205343 Eh     change       -0.4020965E-04 Eh
   gradient norm :     0.0032446 Eh/α   predicted    -0.2787827E-04 ( -30.67%)
   displ. norm   :     0.0383300 α      lambda       -0.4703470E-04
   maximum displ.:     0.0177740 α      in ANC's #28, #17, #14, ...

........................................................................
.............................. CYCLE   14 ..............................
........................................................................
   1    -83.4023169 -0.834023E+02  0.149E-02    3.40       0.0  T
   2    -83.4023170 -0.536305E-07  0.904E-03    3.40       1.4  T
   3    -83.4023154  0.150691E-05  0.519E-03    3.40       2.5  T
   4    -83.4023171 -0.165599E-05  0.547E-04    3.40      23.6  T
   5    -83.4023171 -0.141193E-07  0.222E-04    3.40      58.1  T
   6    -83.4023171 -0.114814E-08  0.992E-05    3.40     130.2  T
     SCC iter.                  ...        0 min,  0.016 sec
     gradient                   ...        0 min,  0.027 sec
 * total energy  :   -82.3205672 Eh     change       -0.3288976E-04 Eh
   gradient norm :     0.0028050 Eh/α   predicted    -0.2358641E-04 ( -28.29%)
   displ. norm   :     0.0286579 α      lambda       -0.3124169E-04
   maximum displ.:     0.0133136 α      in ANC's #36, #17, #14, ...

........................................................................
.............................. CYCLE   15 ..............................
........................................................................
   1    -83.4020295 -0.834020E+02  0.110E-02    3.41       0.0  T
   2    -83.4020296 -0.683389E-07  0.658E-03    3.41       2.0  T
   3    -83.4020292  0.422304E-06  0.301E-03    3.41       4.3  T
   4    -83.4020296 -0.471417E-06  0.368E-04    3.41      35.1  T
   5    -83.4020296 -0.551886E-08  0.230E-04    3.41      56.2  T
     SCC iter.                  ...        0 min,  0.014 sec
     gradient                   ...        0 min,  0.028 sec
 * total energy  :   -82.3205895 Eh     change       -0.2234796E-04 Eh
   gradient norm :     0.0021277 Eh/α   predicted    -0.1566488E-04 ( -29.90%)
   displ. norm   :     0.0253692 α      lambda       -0.2436379E-04
   maximum displ.:     0.0129642 α      in ANC's #36, #17, #37, ...

........................................................................
.............................. CYCLE   16 ..............................
........................................................................
   1    -83.4014490 -0.834014E+02  0.925E-03    3.41       0.0  T
   2    -83.4014490 -0.681759E-07  0.558E-03    3.41       2.3  T
   3    -83.4014487  0.328438E-06  0.277E-03    3.41       4.7  T
   4    -83.4014491 -0.379699E-06  0.285E-04    3.41      45.3  T
   5    -83.4014491 -0.281024E-08  0.126E-04    3.41     102.5  T
     SCC iter.                  ...        0 min,  0.014 sec
     gradient                   ...        0 min,  0.028 sec
 * total energy  :   -82.3206069 Eh     change       -0.1735213E-04 Eh
   gradient norm :     0.0019413 Eh/α   predicted    -0.1219453E-04 ( -29.72%)
   displ. norm   :     0.0344157 α      lambda       -0.1912199E-04
   maximum displ.:     0.0139161 α      in ANC's #36, #17, #14, ...

........................................................................
.............................. CYCLE   17 ..............................
........................................................................
   1    -83.4006133 -0.834006E+02  0.116E-02    3.41       0.0  T
   2    -83.4006135 -0.114249E-06  0.708E-03    3.41       1.8  T
   3    -83.4006130  0.450419E-06  0.313E-03    3.41       4.1  T
   4    -83.4006135 -0.514848E-06  0.430E-04    3.41      30.0  T
   5    -83.4006135 -0.773639E-08  0.176E-04    3.41      73.5  T
     SCC iter.                  ...        0 min,  0.014 sec
     gradient                   ...        0 min,  0.027 sec
 * total energy  :   -82.3206236 Eh     change       -0.1672252E-04 Eh
   gradient norm :     0.0023016 Eh/α   predicted    -0.9570319E-05 ( -42.77%)
   displ. norm   :     0.0123132 α      lambda       -0.1032524E-04
   maximum displ.:     0.0047206 α      in ANC's #17, #14, #6, ...

........................................................................
.............................. CYCLE   18 ..............................
........................................................................
   1    -83.4006480 -0.834006E+02  0.491E-03    3.41       0.0  T
   2    -83.4006481 -0.117111E-07  0.292E-03    3.41       4.4  T
   3    -83.4006480  0.805295E-07  0.122E-03    3.41      10.6  T
   4    -83.4006481 -0.868879E-07  0.220E-04    3.41      58.7  T
   5    -83.4006481 -0.217355E-08  0.626E-05    3.41     206.2  T
     SCC iter.                  ...        0 min,  0.014 sec
     gradient                   ...        0 min,  0.028 sec
 * total energy  :   -82.3206323 Eh     change       -0.8694578E-05 Eh
   gradient norm :     0.0016986 Eh/α   predicted    -0.5169898E-05 ( -40.54%)
   displ. norm   :     0.0466861 α      lambda       -0.1959636E-04
   maximum displ.:     0.0181168 α      in ANC's #17, #14, #6, ...

........................................................................
.............................. CYCLE   19 ..............................
........................................................................
   1    -83.4011228 -0.834011E+02  0.163E-02    3.41       0.0  T
   2    -83.4011229 -0.120936E-06  0.972E-03    3.41       1.3  T
   3    -83.4011222  0.724757E-06  0.372E-03    3.41       3.5  T
   4    -83.4011230 -0.785706E-06  0.664E-04    3.41      19.4  T
   5    -83.4011230 -0.177593E-07  0.223E-04    3.41      57.9  T
     SCC iter.                  ...        0 min,  0.014 sec
     gradient                   ...        0 min,  0.028 sec
 * total energy  :   -82.3206434 Eh     change       -0.1115887E-04 Eh
   gradient norm :     0.0016139 Eh/α   predicted    -0.9811281E-05 ( -12.08%)
   displ. norm   :     0.0459871 α      lambda        0.3355846E-04
   maximum displ.:     0.0178418 α      in ANC's #17, #14, #6, ...

........................................................................
.............................. CYCLE   20 ..............................
........................................................................
   1    -83.4015226 -0.834015E+02  0.161E-02    3.41       0.0  T
   2    -83.4015227 -0.121911E-06  0.964E-03    3.41       1.3  T
   3    -83.4015221  0.646075E-06  0.357E-03    3.41       3.6  T
   4    -83.4015228 -0.703942E-06  0.640E-04    3.41      20.2  T
   5    -83.4015228 -0.159841E-07  0.220E-04    3.41      58.7  T
     SCC iter.                  ...        0 min,  0.014 sec
     gradient                   ...        0 min,  0.028 sec
 * total energy  :   -82.3206184 Eh     change        0.2508413E-04 Eh
   gradient norm :     0.0041473 Eh/α   predicted     0.1678998E-04 ( -33.07%)
   displ. norm   :     0.0328181 α      lambda       -0.3740255E-04
   maximum displ.:     0.0126562 α      in ANC's #17, #14, #6, ...
 * RMSD in coord.:     0.0974644 α      energy gain  -0.1749859E+00 Eh

generating ANC from model Hessian ...
Using Lindh-Hessian (1995)
 Shifting diagonal of input Hessian by    9.8924273227753972E-003
 Lowest  eigenvalues of input Hessian
    0.000000    0.000000    0.000000    0.000000    0.000000    0.000000
    0.010000    0.010034    0.010099    0.010390    0.010994    0.011785
    0.012372    0.013185    0.013263    0.014148    0.014561    0.015069
 Highest eigenvalues
    1.723077    1.912718    1.923576    1.948593    8.780637    9.124919


........................................................................
.............................. CYCLE   21 ..............................
........................................................................
   1    -83.4013654 -0.834014E+02  0.125E-02    3.41       0.0  T
   2    -83.4013655 -0.794548E-07  0.746E-03    3.41       1.7  T
   3    -83.4013650  0.455790E-06  0.295E-03    3.41       4.4  T
   4    -83.4013655 -0.493180E-06  0.552E-04    3.41      23.4  T
   5    -83.4013655 -0.129466E-07  0.170E-04    3.41      75.9  T
     SCC iter.                  ...        0 min,  0.014 sec
     gradient                   ...        0 min,  0.028 sec
 * total energy  :   -82.3206441 Eh     change       -0.2572379E-04 Eh
   gradient norm :     0.0019053 Eh/α   predicted     0.0000000E+00 (-100.00%)
   displ. norm   :     0.0521013 α      lambda       -0.2636758E-04
   maximum displ.:     0.0255126 α      in ANC's #5, #28, #4, ...

........................................................................
.............................. CYCLE   22 ..............................
........................................................................
   1    -83.4016999 -0.834017E+02  0.157E-02    3.41       0.0  T
   2    -83.4016999 -0.669876E-07  0.935E-03    3.41       1.4  T
   3    -83.4016997  0.245930E-06  0.223E-03    3.41       5.8  T
   4    -83.4017000 -0.270156E-06  0.423E-04    3.41      30.5  T
   5    -83.4017000 -0.740658E-08  0.220E-04    3.41      58.6  T
     SCC iter.                  ...        0 min,  0.014 sec
     gradient                   ...        0 min,  0.028 sec
 * total energy  :   -82.3206702 Eh     change       -0.2606412E-04 Eh
   gradient norm :     0.0008605 Eh/α   predicted    -0.1320984E-04 ( -49.32%)
   displ. norm   :     0.0790253 α      lambda       -0.1764607E-04
   maximum displ.:     0.0457719 α      in ANC's #5, #4, #6, ...

........................................................................
.............................. CYCLE   23 ..............................
........................................................................
   1    -83.4019596 -0.834020E+02  0.149E-02    3.41       0.0  T
   2    -83.4019596 -0.435422E-07  0.886E-03    3.41       1.5  T
   3    -83.4019593  0.348517E-06  0.240E-03    3.41       5.4  T
   4    -83.4019596 -0.377649E-06  0.402E-04    3.41      32.1  T
   5    -83.4019596 -0.465570E-08  0.187E-04    3.41      69.1  T
     SCC iter.                  ...        0 min,  0.013 sec
     gradient                   ...        0 min,  0.027 sec
 * total energy  :   -82.3206893 Eh     change       -0.1917111E-04 Eh
   gradient norm :     0.0013840 Eh/α   predicted    -0.8865095E-05 ( -53.76%)
   displ. norm   :     0.1078225 α      lambda       -0.1682872E-04
   maximum displ.:     0.0606886 α      in ANC's #5, #4, #6, ...

........................................................................
.............................. CYCLE   24 ..............................
........................................................................
   1    -83.4021128 -0.834021E+02  0.168E-02    3.40       0.0  T
   2    -83.4021128 -0.482175E-07  0.100E-02    3.40       1.3  T
   3    -83.4021127  0.119249E-06  0.159E-03    3.40       8.1  T
   4    -83.4021128 -0.139713E-06  0.417E-04    3.40      31.0  T
   5    -83.4021128 -0.335649E-08  0.237E-04    3.40      54.4  T
     SCC iter.                  ...        0 min,  0.013 sec
     gradient                   ...        0 min,  0.027 sec
 * total energy  :   -82.3207092 Eh     change       -0.1987076E-04 Eh
   gradient norm :     0.0020853 Eh/α   predicted    -0.8458485E-05 ( -57.43%)
   displ. norm   :     0.1070637 α      lambda       -0.2187089E-04
   maximum displ.:     0.0585939 α      in ANC's #5, #4, #3, ...

........................................................................
.............................. CYCLE   25 ..............................
........................................................................
   1    -83.4020275 -0.834020E+02  0.144E-02    3.40       0.0  T
   2    -83.4020276 -0.282552E-07  0.864E-03    3.40       1.5  T
   3    -83.4020272  0.374785E-06  0.258E-03    3.40       5.0  T
   4    -83.4020276 -0.409662E-06  0.377E-04    3.40      34.2  T
   5    -83.4020276 -0.189419E-08  0.226E-04    3.40      57.1  T
     SCC iter.                  ...        0 min,  0.013 sec
     gradient                   ...        0 min,  0.027 sec
 * total energy  :   -82.3207271 Eh     change       -0.1786417E-04 Eh
   gradient norm :     0.0022450 Eh/α   predicted    -0.1106161E-04 ( -38.08%)
   displ. norm   :     0.1691856 α      lambda       -0.2844371E-04
   maximum displ.:     0.0907813 α      in ANC's #5, #4, #3, ...

........................................................................
.............................. CYCLE   26 ..............................
........................................................................
   1    -83.4017872 -0.834018E+02  0.222E-02    3.40       0.0  T
   2    -83.4017873 -0.754406E-07  0.133E-02    3.40       1.0  T
   3    -83.4017863  0.912707E-06  0.407E-03    3.40       3.2  T
   4    -83.4017873 -0.999417E-06  0.601E-04    3.40      21.5  T
   5    -83.4017874 -0.514324E-08  0.367E-04    3.40      35.2  T
     SCC iter.                  ...        0 min,  0.013 sec
     gradient                   ...        0 min,  0.027 sec
 * total energy  :   -82.3207476 Eh     change       -0.2050015E-04 Eh
   gradient norm :     0.0009955 Eh/α   predicted    -0.1463196E-04 ( -28.63%)
   displ. norm   :     0.1944366 α      lambda       -0.1401925E-04
   maximum displ.:     0.1019177 α      in ANC's #4, #5, #3, ...

........................................................................
.............................. CYCLE   27 ..............................
........................................................................
   1    -83.4015159 -0.834015E+02  0.259E-02    3.40       0.0  T
   2    -83.4015160 -0.815296E-07  0.156E-02    3.40       1.0  T
   3    -83.4015135  0.249666E-05  0.655E-03    3.40       2.0  T
   4    -83.4015162 -0.270877E-05  0.649E-04    3.40      19.9  T
   5    -83.4015162 -0.448497E-08  0.391E-04    3.40      33.0  T
   6    -83.4015162 -0.168048E-08  0.187E-04    3.40      69.2  T
     SCC iter.                  ...        0 min,  0.016 sec
     gradient                   ...        0 min,  0.027 sec
 * total energy  :   -82.3207595 Eh     change       -0.1198727E-04 Eh
   gradient norm :     0.0011017 Eh/α   predicted    -0.7128206E-05 ( -40.54%)
   displ. norm   :     0.0488753 α      lambda       -0.5502162E-05
   maximum displ.:     0.0251071 α      in ANC's #4, #2, #3, ...

........................................................................
.............................. CYCLE   28 ..............................
........................................................................
   1    -83.4018120 -0.834018E+02  0.749E-03    3.40       0.0  T
   2    -83.4018120 -0.899165E-08  0.446E-03    3.40       2.9  T
   3    -83.4018118  0.179629E-06  0.179E-03    3.40       7.2  T
   4    -83.4018120 -0.194392E-06  0.181E-04    3.40      71.2  T
   5    -83.4018120 -0.102857E-08  0.944E-05    3.40     136.8  T
     SCC iter.                  ...        0 min,  0.013 sec
     gradient                   ...        0 min,  0.027 sec
 * total energy  :   -82.3207664 Eh     change       -0.6821173E-05 Eh
   gradient norm :     0.0010474 Eh/α   predicted    -0.2754797E-05 ( -59.61%)
   displ. norm   :     0.1031580 α      lambda       -0.1129357E-04
   maximum displ.:     0.0503299 α      in ANC's #2, #3, #4, ...

........................................................................
.............................. CYCLE   29 ..............................
........................................................................
   1    -83.4020430 -0.834020E+02  0.168E-02    3.40       0.0  T
   2    -83.4020430 -0.539033E-07  0.999E-03    3.40       1.3  T
   3    -83.4020427  0.313927E-06  0.236E-03    3.40       5.5  T
   4    -83.4020430 -0.340240E-06  0.398E-04    3.40      32.4  T
   5    -83.4020430 -0.570134E-08  0.189E-04    3.40      68.3  T
     SCC iter.                  ...        0 min,  0.013 sec
     gradient                   ...        0 min,  0.027 sec
 * total energy  :   -82.3207775 Eh     change       -0.1115844E-04 Eh
   gradient norm :     0.0008164 Eh/α   predicted    -0.5677151E-05 ( -49.12%)
   displ. norm   :     0.0770869 α      lambda       -0.5080131E-05
   maximum displ.:     0.0417958 α      in ANC's #2, #3, #4, ...

........................................................................
.............................. CYCLE   30 ..............................
........................................................................
   1    -83.4019000 -0.834019E+02  0.102E-02    3.40       0.0  T
   2    -83.4019001 -0.134889E-07  0.610E-03    3.40       2.1  T
   3    -83.4019000  0.496769E-07  0.980E-04    3.40      13.2  T
   4    -83.4019001 -0.558231E-07  0.217E-04    3.40      59.5  T
     SCC iter.                  ...        0 min,  0.010 sec
     gradient                   ...        0 min,  0.027 sec
 * total energy  :   -82.3207832 Eh     change       -0.5715343E-05 Eh
   gradient norm :     0.0010351 Eh/α   predicted    -0.2548092E-05 ( -55.42%)
   displ. norm   :     0.0769912 α      lambda       -0.4929723E-05
   maximum displ.:     0.0439474 α      in ANC's #2, #3, #4, ...

........................................................................
.............................. CYCLE   31 ..............................
........................................................................
   1    -83.4019452 -0.834019E+02  0.926E-03    3.40       0.0  T
   2    -83.4019452 -0.972139E-08  0.551E-03    3.40       2.3  T
   3    -83.4019451  0.179565E-06  0.177E-03    3.40       7.3  T
   4    -83.4019453 -0.194259E-06  0.188E-04    3.40      68.6  T
   5    -83.4019453 -0.608551E-09  0.111E-04    3.40     116.0  T
     SCC iter.                  ...        0 min,  0.014 sec
     gradient                   ...        0 min,  0.027 sec
 * total energy  :   -82.3207893 Eh     change       -0.6058085E-05 Eh
   gradient norm :     0.0012359 Eh/α   predicted    -0.2474196E-05 ( -59.16%)
   displ. norm   :     0.1052071 α      lambda       -0.6808433E-05
   maximum displ.:     0.0616521 α      in ANC's #2, #3, #4, ...

........................................................................
.............................. CYCLE   32 ..............................
........................................................................
   1    -83.4019225 -0.834019E+02  0.123E-02    3.40       0.0  T
   2    -83.4019225 -0.171507E-07  0.730E-03    3.40       1.8  T
   3    -83.4019220  0.517639E-06  0.306E-03    3.40       4.2  T
   4    -83.4019226 -0.561637E-06  0.288E-04    3.40      44.9  T
   5    -83.4019226 -0.198472E-08  0.177E-04    3.40      73.0  T
     SCC iter.                  ...        0 min,  0.013 sec
     gradient                   ...        0 min,  0.027 sec
 * total energy  :   -82.3207967 Eh     change       -0.7365140E-05 Eh
   gradient norm :     0.0028633 Eh/α   predicted    -0.3425427E-05 ( -53.49%)
   displ. norm   :     0.0830698 α      lambda       -0.7565170E-05
   maximum displ.:     0.0497551 α      in ANC's #2, #3, #4, ...

........................................................................
.............................. CYCLE   33 ..............................
........................................................................
   1    -83.4018291 -0.834018E+02  0.955E-03    3.40       0.0  T
   2    -83.4018291 -0.111882E-07  0.566E-03    3.40       2.3  T
   3    -83.4018290  0.702602E-07  0.119E-03    3.40      10.8  T
   4    -83.4018291 -0.779968E-07  0.196E-04    3.40      65.8  T
   5    -83.4018291 -0.771081E-09  0.120E-04    3.40     107.6  T
     SCC iter.                  ...        0 min,  0.013 sec
     gradient                   ...        0 min,  0.027 sec
 * total energy  :   -82.3208028 Eh     change       -0.6100243E-05 Eh
   gradient norm :     0.0006288 Eh/α   predicted    -0.3810782E-05 ( -37.53%)
   displ. norm   :     0.1589986 α      lambda       -0.8104836E-05
   maximum displ.:     0.0956707 α      in ANC's #2, #3, #4, ...

........................................................................
.............................. CYCLE   34 ..............................
........................................................................
   1    -83.4017811 -0.834018E+02  0.176E-02    3.40       0.0  T
   2    -83.4017811 -0.286617E-07  0.104E-02    3.40       1.2  T
   3    -83.4017809  0.181515E-06  0.200E-03    3.40       6.4  T
   4    -83.4017811 -0.205905E-06  0.298E-04    3.40      43.3  T
   5    -83.4017811 -0.379288E-09  0.197E-04    3.40      65.4  T
     SCC iter.                  ...        0 min,  0.013 sec
     gradient                   ...        0 min,  0.027 sec
 * total energy  :   -82.3208123 Eh     change       -0.9495973E-05 Eh
   gradient norm :     0.0015305 Eh/α   predicted    -0.4101414E-05 ( -56.81%)
   displ. norm   :     0.1579551 α      lambda       -0.7621430E-05
   maximum displ.:     0.0959059 α      in ANC's #2, #3, #4, ...

........................................................................
.............................. CYCLE   35 ..............................
........................................................................
   1    -83.4018344 -0.834018E+02  0.177E-02    3.40       0.0  T
   2    -83.4018344 -0.276149E-07  0.105E-02    3.40       1.2  T
   3    -83.4018343  0.116687E-06  0.159E-03    3.40       8.1  T
   4    -83.4018345 -0.134844E-06  0.301E-04    3.40      42.8  T
   5    -83.4018345 -0.126218E-08  0.189E-04    3.40      68.3  T
     SCC iter.                  ...        0 min,  0.013 sec
     gradient                   ...        0 min,  0.027 sec
 * total energy  :   -82.3208216 Eh     change       -0.9387170E-05 Eh
   gradient norm :     0.0007580 Eh/α   predicted    -0.3856863E-05 ( -58.91%)
   displ. norm   :     0.1731113 α      lambda       -0.7701936E-05
   maximum displ.:     0.1065331 α      in ANC's #2, #3, #4, ...

........................................................................
.............................. CYCLE   36 ..............................
........................................................................
   1    -83.4018605 -0.834019E+02  0.196E-02    3.40       0.0  T
   2    -83.4018605 -0.404707E-07  0.116E-02    3.40       1.1  T
   3    -83.4018603  0.182442E-06  0.185E-03    3.40       7.0  T
   4    -83.4018605 -0.204604E-06  0.381E-04    3.40      33.9  T
   5    -83.4018605 -0.393423E-08  0.213E-04    3.40      60.6  T
     SCC iter.                  ...        0 min,  0.013 sec
     gradient                   ...        0 min,  0.027 sec
 * total energy  :   -82.3208303 Eh     change       -0.8637853E-05 Eh
   gradient norm :     0.0008173 Eh/α   predicted    -0.3903961E-05 ( -54.80%)
   displ. norm   :     0.1333118 α      lambda       -0.4444758E-05
   maximum displ.:     0.0837572 α      in ANC's #2, #3, #4, ...

........................................................................
.............................. CYCLE   37 ..............................
........................................................................
   1    -83.4018919 -0.834019E+02  0.156E-02    3.39       0.0  T
   2    -83.4018920 -0.272203E-07  0.924E-03    3.39       1.4  T
   3    -83.4018918  0.121114E-06  0.146E-03    3.39       8.8  T
   4    -83.4018920 -0.135517E-06  0.300E-04    3.39      43.1  T
   5    -83.4018920 -0.256681E-08  0.160E-04    3.39      80.7  T
     SCC iter.                  ...        0 min,  0.013 sec
     gradient                   ...        0 min,  0.027 sec
 * total energy  :   -82.3208351 Eh     change       -0.4792196E-05 Eh
   gradient norm :     0.0004367 Eh/α   predicted    -0.2241417E-05 ( -53.23%)
   displ. norm   :     0.0913764 α      lambda       -0.2724889E-05
   maximum displ.:     0.0585000 α      in ANC's #2, #3, #4, ...

   *** GEOMETRY OPTIMIZATION CONVERGED AFTER 37 ITERATIONS ***

------------------------------------------------------------------------
 total energy gain   :        -0.1752026 Eh     -109.9413 kcal/mol
 total RMSD          :         0.2335378 a0        0.1236 Å
 total power (kW/mol):       -12.4322818 (step) -241.4755 (real)
------------------------------------------------------------------------

 ANCopt (total)                0 d,  0 h,  0 min,  1.905 sec
 optimizer setup                ...        0 min,  0.000 sec (  0.005%)
 model hessian                  ...        0 min,  0.064 sec (  3.359%)
 ANC generation                 ...        0 min,  0.005 sec (  0.283%)
 coordinate transformation      ...        0 min,  0.001 sec (  0.030%)
 single point calculation       ...        0 min,  1.822 sec ( 95.660%)
 optimization log               ...        0 min,  0.008 sec (  0.397%)
 hessian update                 ...        0 min,  0.001 sec (  0.043%)
 rational function              ...        0 min,  0.003 sec (  0.147%)

================
 final structure:
================
60
 xtb: 6.5.0 (homebrew)
C            3.62017836337429      -37.66291246934084       15.81007217785221
C            3.78190256927714      -38.07758821600300       17.27043750224255
O            3.31762603052823      -37.02686816049446       18.11938828653509
C            2.89486975636445      -39.29757064560003       17.54849647980086
C            5.26729292772544      -38.28295040945708       17.74139775836565
C            5.72172785897269      -39.73765678277004       17.82831961056575
C            6.27463968842008      -37.49006191835583       16.89957568898840
O            5.27344187473961      -37.70541086549184       19.04808784537466
B            4.16771161385125      -36.91809856911571       19.18639047636080
C            3.89460698141601      -35.99651195443263       20.41806651579376
C            4.89193317561157      -36.01972050124041       21.48973265769786
C            4.89030492010511      -35.32139932382132       22.62240166583827
H            5.72144717422635      -35.44632415331027       23.30422046432904
C            3.83867645425145      -34.33628898499982       23.03647039922131
H            4.08341592430487      -33.93507943627387       24.02141204661051
C            2.47279581669951      -34.98149975537933       23.12803480468372
B            1.74226547155240      -34.95374979119449       24.50389169434557
O            2.26493804376663      -34.38733556423119       25.63432875593338
C            1.40534398032649      -34.67847592040089       26.73459854369750
C            1.28352534791809      -33.44567857577115       27.62743809026466
C            2.06706351255648      -35.81121569351315       27.52990374977081
C            0.07108299588421      -35.12428794956296       26.03356408199247
C           -0.92995290923576      -33.97290667047334       25.87210519587672
C           -0.63422384872841      -36.31124443801154       26.68569222896970
O            0.50071524375053      -35.48593859178108       24.72176418838159
C            1.89799843935582      -35.57578552109289       22.07468528975391
C            2.42079346471426      -35.68805161741589       20.71321316974730
H            1.74485399007499      -36.20189976058967       20.03871195522963
C            3.20707413070561      -34.58989284446980       20.05078856474147
C            3.62649860107716      -33.37150070016931       20.72620250675141
C            3.89357836344898      -33.23383583872743       22.02336355621453
H            4.20830144793712      -32.26393295831063       22.38585596077609
H            2.56049058049620      -37.57032857404071       15.58515873967340
H            4.05367884939998      -38.41513270296371       15.15677994281882
H            4.08960573778056      -36.70324970158587       15.61935269452050
H            1.86008525026262      -39.02362897652979       17.35541022073706
H            2.97564165484002      -39.59070192341314       18.59235929155068
H            3.16439884587205      -40.13269544611072       16.90918900651890
H            5.64101953517696      -40.21561602218544       16.85583629066550
H            5.13419931997190      -40.28973861068376       18.55458882269050
H            6.76057199041958      -39.76220431194631       18.14781431314794
H            6.35776306272532      -37.90047444103790       15.89775579231741
H            7.24621915788301      -37.54125415303954       17.38557957922405
H            5.98130566939599      -36.44457177412702       16.84684124755313
H            5.72258341252060      -36.68349778302207       21.28508770793956
H            2.25194014580229      -33.23822130784061       28.07603591199536
H            0.56076542127910      -33.62517442476432       28.41882752079112
H            0.98497915504708      -32.57394324358794       27.05428170433391
H            3.05559414970399      -35.48243762668998       27.84258812616491
H            2.18888915540191      -36.68960140756553       26.90093755726180
H            1.48434478874697      -36.06573692352850       28.41015933472694
H           -1.33835003176839      -33.66888643920596       26.83127545993448
H           -1.74172446405604      -34.31000980764244       25.23161716685956
H           -0.45209573405186      -33.12474811088506       25.38823183437768
H           -0.88848134690421      -36.07733549996213       27.71601196342695
H           -0.01317519109731      -37.20058187377987       26.65761504659576
H           -1.54862927184428      -36.52180983527506       26.13666000645191
H            0.92637632228099      -36.02858783822897       22.22877407905708
H            3.02384311587123      -34.48333317902777       18.99021400772440
H            3.73944331388532      -32.51176347950812       20.07618471823141

 Bond Distances (Angstroems)
 ---------------------------
C1-C2=1.5267         C1-H33=1.0872        C1-H34=1.0865        C1-H35=1.0852        C2-C1=1.5267         C2-O3=1.4284         
C2-C4=1.5338         C2-C5=1.5717         O3-C2=1.4284         O3-B9=1.3686         C4-C2=1.5338         C4-H36=1.0877        
C4-H37=1.0872        C4-H38=1.0857        C5-C2=1.5717         C5-C6=1.5265         C5-C7=1.5337         C5-O8=1.4286         
C6-C5=1.5265         C6-H39=1.0866        C6-H40=1.0851        C6-H41=1.0871        C7-C5=1.5337         C7-H42=1.0858        
C7-H43=1.0876        C7-H44=1.0871        O8-C5=1.4286         O8-B9=1.3644         B9-O3=1.3686         B9-O8=1.3644         
B9-C10=1.5623        C10-B9=1.5623        C10-C11=1.4641       C10-C27=1.5344       C10-C29=1.6082       C11-C10=1.4641       
C11-C12=1.3306       C11-H45=1.0828       C12-C11=1.3306       C12-H13=1.0823       C12-C14=1.4993       H13-C12=1.0823       
C14-C12=1.4993       C14-H15=1.0913       C14-C16=1.5134       C14-C31=1.4983       H15-C14=1.0913       C16-C14=1.5134       
C16-B17=1.5580       C16-C26=1.3391       B17-C16=1.5580       B17-O18=1.3682       B17-O25=1.3683       O18-B17=1.3682       
O18-C19=1.4263       C19-O18=1.4263       C19-C20=1.5270       C19-C21=1.5341       C19-C22=1.5718       C20-C19=1.5270       
C20-H46=1.0872       C20-H47=1.0867       C20-H48=1.0852       C21-C19=1.5341       C21-H49=1.0877       C21-H50=1.0872       
C21-H51=1.0859       C22-C19=1.5718       C22-C23=1.5342       C22-C24=1.5270       C22-O25=1.4270       C23-C22=1.5342       
C23-H52=1.0859       C23-H53=1.0876       C23-H54=1.0871       C24-C22=1.5270       C24-H55=1.0867       C24-H56=1.0851       
C24-H57=1.0872       O25-B17=1.3683       O25-C22=1.4270       C26-C16=1.3391       C26-C27=1.4627       C26-H58=1.0830       
C27-C10=1.5344       C27-C26=1.4627       C27-H28=1.0844       C27-C29=1.5043       H28-C27=1.0844       C29-C10=1.6082       
C29-C27=1.5043       C29-C30=1.4548       C29-H59=1.0815       C30-C29=1.4548       C30-C31=1.3315       C30-H60=1.0837       
C31-C14=1.4983       C31-C30=1.3315       C31-H32=1.0822       H32-C31=1.0822       H33-C1=1.0872        H34-C1=1.0865        
H35-C1=1.0852        H36-C4=1.0877        H37-C4=1.0872        H38-C4=1.0857        H39-C6=1.0866        H40-C6=1.0851        
H41-C6=1.0871        H42-C7=1.0858        H43-C7=1.0876        H44-C7=1.0871        H45-C11=1.0828       H46-C20=1.0872       
H47-C20=1.0867       H48-C20=1.0852       H49-C21=1.0877       H50-C21=1.0872       H51-C21=1.0859       H52-C23=1.0859       
H53-C23=1.0876       H54-C23=1.0871       H55-C24=1.0867       H56-C24=1.0851       H57-C24=1.0872       H58-C26=1.0830       
H59-C29=1.0815       H60-C30=1.0837       
 C  H  Rav=1.0859 sigma=0.0020  Rmin=1.0815  Rmax=1.0913    32
 C  B  Rav=1.5602 sigma=0.0022  Rmin=1.5580  Rmax=1.5623     2
 C  C  Rav=1.4967 sigma=0.0733  Rmin=1.3306  Rmax=1.6082    22
 O  B  Rav=1.3674 sigma=0.0017  Rmin=1.3644  Rmax=1.3686     4
 O  C  Rav=1.4276 sigma=0.0010  Rmin=1.4263  Rmax=1.4286     4

 selected bond angles (degree)
 --------------------
H33-C1-C2=108.92               H34-C1-C2=110.17               H34-C1-H33=108.87              H35-C1-C2=111.25               
H35-C1-H33=108.06              H35-C1-H34=109.51              O3-C2-C1=109.53                C4-C2-C1=109.16                
C4-C2-O3=106.82                C5-C2-C1=114.98                C5-C2-O3=103.01                C5-C2-C4=112.85                
B9-O3-C2=108.66                H36-C4-C2=108.52               H37-C4-C2=110.21               H37-C4-H36=108.00              
H38-C4-C2=111.19               H38-C4-H36=108.99              H38-C4-H37=109.85              C6-C5-C2=115.02                
C7-C5-C2=112.87                C7-C5-C6=109.17                O8-C5-C2=103.02                O8-C5-C6=109.38                
O8-C5-C7=106.87                H39-C6-C5=110.25               H40-C6-C5=111.21               H40-C6-H39=109.57              
H41-C6-C5=108.83               H41-C6-H39=108.91              H41-C6-H40=108.01              H42-C7-C5=111.18               
H43-C7-C5=108.49               H43-C7-H42=109.03              H44-C7-C5=110.28               H44-C7-H42=109.84              
H44-C7-H43=107.94              B9-O8-C5=108.81                O8-B9-O3=112.24                C10-B9-O3=123.57               
C10-B9-O8=124.19               C11-C10-B9=116.65              C27-C10-B9=115.98              C27-C10-C11=121.11             
C29-C10-B9=114.24              C29-C10-C11=118.18             C29-C10-C27= 57.14             

 selected dihedral angles (degree)
 ---------------------------------
O3-C2-C1-H33=294.16           O3-C2-C1-H34=174.81           O3-C2-C1-H35= 53.16           C4-C2-C1-H33= 50.79           
C4-C2-C1-H34=291.44           C4-C2-C1-H35=169.80           C5-C2-C1-H33=178.77           C5-C2-C1-H34= 59.41           
C5-C2-C1-H35=297.77           B9-O3-C2-C1=220.10            B9-O3-C2-C4=102.00            B9-O3-C2-C5=342.90            
H36-C4-C2-C1=299.66           H36-C4-C2-O3= 58.00           H36-C4-C2-C5=170.50           H37-C4-C2-C1=181.59           
H37-C4-C2-O3=299.93           H37-C4-C2-C5= 52.43           H38-C4-C2-C1= 59.53           H38-C4-C2-O3=177.87           
H38-C4-C2-C5=290.37           C6-C5-C2-C1=258.32            C6-C5-C2-O3=139.23            C6-C5-C2-C4= 24.42            
C7-C5-C2-C1= 24.50            C7-C5-C2-O3=265.41            C7-C5-C2-C4=150.59            O8-C5-C2-C1=139.38            
O8-C5-C2-O3= 20.30            O8-C5-C2-C4=265.48            H39-C6-C5-C2= 59.83           H39-C6-C5-C7=291.77           
H39-C6-C5-O8=175.16           H40-C6-C5-C2=298.08           H40-C6-C5-C7=170.03           H40-C6-C5-O8= 53.41           
H41-C6-C5-C2=179.22           H41-C6-C5-C7= 51.16           H41-C6-C5-O8=294.54           H42-C7-C5-C2=290.10           
H42-C7-C5-C6= 59.34           H42-C7-C5-O8=177.55           H43-C7-C5-C2=170.20           H43-C7-C5-C6=299.45           
H43-C7-C5-O8= 57.65           H44-C7-C5-C2= 52.18           H44-C7-C5-C6=181.43           H44-C7-C5-O8=299.63           
B9-O8-C5-C2=343.35            B9-O8-C5-C6=220.56            B9-O8-C5-C7=102.50            O8-B9-O3-C2=  7.61            
C10-B9-O3-C2=187.67           O3-B9-O8-C5=  6.81            C10-B9-O8-C5=186.76           C11-C10-B9-O3=178.64          
C11-C10-B9-O8=358.70          C27-C10-B9-O3= 26.04          C27-C10-B9-O8=206.11          C29-C10-B9-O3=322.31          
C29-C10-B9-O8=142.37          
           -------------------------------------------------
          |                Final Singlepoint                |
           -------------------------------------------------

          ...................................................
          :                      SETUP                      :
          :.................................................:
          :  # basis functions                 144          :
          :  # atomic orbitals                 144          :
          :  # shells                           88          :
          :  # electrons                       150          :
          :  max. iterations                   250          :
          :  Hamiltonian                  GFN2-xTB          :
          :  restarted?                      false          :
          :  GBSA solvation                  false          :
          :  PC potential                    false          :
          :  electronic temp.          300.0000000     K    :
          :  accuracy                    1.0000000          :
          :  -> integral cutoff          0.2500000E+02      :
          :  -> integral neglect         0.1000000E-07      :
          :  -> SCF convergence          0.1000000E-05 Eh   :
          :  -> wf. convergence          0.1000000E-03 e    :
          :  Broyden damping             0.4000000          :
          ...................................................

 iter      E             dE          RMSdq      gap      omega  full diag
   1    -83.4018920 -0.834019E+02  0.740E-05    3.39       0.0  T
   2    -83.4018920 -0.311218E-10  0.587E-05    3.39     219.9  T
   3    -83.4018920 -0.118149E-09  0.279E-05    3.39     462.9  T

   *** convergence criteria satisfied after 3 iterations ***

         #    Occupation            Energy/Eh            Energy/eV
      -------------------------------------------------------------
         1        2.0000           -0.6926958             -18.8492
       ...           ...                  ...                  ...
        69        2.0000           -0.4024733             -10.9519
        70        2.0000           -0.4005234             -10.8988
        71        2.0000           -0.3978517             -10.8261
        72        2.0000           -0.3951400             -10.7523
        73        2.0000           -0.3875545             -10.5459
        74        2.0000           -0.3531151              -9.6088
        75        2.0000           -0.3485909              -9.4856 (HOMO)
        76                         -0.2238630              -6.0916 (LUMO)
        77                         -0.1951691              -5.3108
        78                         -0.1834626              -4.9923
        79                         -0.1455458              -3.9605
        80                         -0.0944236              -2.5694
       ...                                ...                  ...
       144                          0.6752733              18.3751
      -------------------------------------------------------------
                  HL-Gap            0.1247279 Eh            3.3940 eV
             Fermi-level           -0.2862269 Eh           -7.7886 eV

 SCC (total)                   0 d,  0 h,  0 min,  0.042 sec
 SCC setup                      ...        0 min,  0.000 sec (  0.520%)
 Dispersion                     ...        0 min,  0.000 sec (  0.875%)
 classical contributions        ...        0 min,  0.000 sec (  0.402%)
 integral evaluation            ...        0 min,  0.006 sec ( 13.958%)
 iterations                     ...        0 min,  0.008 sec ( 19.325%)
 molecular gradient             ...        0 min,  0.027 sec ( 64.155%)
 printout                       ...        0 min,  0.000 sec (  0.756%)

         :::::::::::::::::::::::::::::::::::::::::::::::::::::
         ::                     SUMMARY                     ::
         :::::::::::::::::::::::::::::::::::::::::::::::::::::
         :: total energy             -82.320835077279 Eh    ::
         :: gradient norm              0.000436346561 Eh/a0 ::
         :: HOMO-LUMO gap              3.394019564513 eV    ::
         ::.................................................::
         :: SCC energy               -83.401891977493 Eh    ::
         :: -> isotropic ES            0.148242115155 Eh    ::
         :: -> anisotropic ES          0.011224464018 Eh    ::
         :: -> anisotropic XC          0.026929358515 Eh    ::
         :: -> dispersion             -0.061962969400 Eh    ::
         :: repulsion energy           1.080325708253 Eh    ::
         :: add. restraining           0.000065409375 Eh    ::
         :: total charge              -0.000000000000 e     ::
         :::::::::::::::::::::::::::::::::::::::::::::::::::::

           -------------------------------------------------
          |                Property Printout                |
           -------------------------------------------------

    * Orbital Energies and Occupations

         #    Occupation            Energy/Eh            Energy/eV
      -------------------------------------------------------------
         1        2.0000           -0.6926958             -18.8492
       ...           ...                  ...                  ...
        63        2.0000           -0.4348330             -11.8324
        64        2.0000           -0.4340032             -11.8098
        65        2.0000           -0.4310262             -11.7288
        66        2.0000           -0.4233096             -11.5188
        67        2.0000           -0.4186943             -11.3933
        68        2.0000           -0.4124719             -11.2239
        69        2.0000           -0.4024733             -10.9519
        70        2.0000           -0.4005234             -10.8988
        71        2.0000           -0.3978517             -10.8261
        72        2.0000           -0.3951400             -10.7523
        73        2.0000           -0.3875545             -10.5459
        74        2.0000           -0.3531151              -9.6088
        75        2.0000           -0.3485909              -9.4856 (HOMO)
        76                         -0.2238630              -6.0916 (LUMO)
        77                         -0.1951691              -5.3108
        78                         -0.1834626              -4.9923
        79                         -0.1455458              -3.9605
        80                         -0.0944236              -2.5694
        81                          0.0031132               0.0847
        82                          0.0080753               0.2197
        83                          0.0113810               0.3097
        84                          0.0250233               0.6809
        85                          0.0305620               0.8316
        86                          0.0533701               1.4523
       ...                                ...                  ...
       144                          0.6752733              18.3751
      -------------------------------------------------------------
                  HL-Gap            0.1247279 Eh            3.3940 eV
             Fermi-level           -0.2862269 Eh           -7.7886 eV

     #   Z          covCN         q      C6AA      α(0)
     1   6 C        3.755    -0.117    22.803     6.809
     2   6 C        3.860     0.130    18.441     6.107
     3   8 O        1.638    -0.379    20.452     6.104
     4   6 C        3.755    -0.116    22.783     6.806
     5   6 C        3.860     0.129    18.449     6.108
     6   6 C        3.755    -0.118    22.813     6.810
     7   6 C        3.755    -0.116    22.784     6.806
     8   8 O        1.638    -0.371    20.307     6.083
     9   5 B        2.659     0.440    15.470     6.622
    10   6 C        3.820    -0.064    21.712     6.631
    11   6 C        2.890    -0.042    29.052     8.837
    12   6 C        2.910    -0.036    28.897     8.815
    13   1 H        0.925     0.024     2.678     2.559
    14   6 C        3.866    -0.016    20.819     6.488
    15   1 H        0.924     0.043     2.408     2.427
    16   6 C        2.869    -0.083    30.078     8.990
    17   5 B        2.662     0.432    15.556     6.639
    18   8 O        1.638    -0.371    20.297     6.081
    19   6 C        3.860     0.129    18.454     6.109
    20   6 C        3.755    -0.117    22.793     6.807
    21   6 C        3.755    -0.116    22.770     6.804
    22   6 C        3.860     0.129    18.450     6.109
    23   6 C        3.755    -0.116    22.777     6.805
    24   6 C        3.755    -0.117    22.799     6.808
    25   8 O        1.638    -0.374    20.353     6.090
    26   6 C        2.895    -0.029    28.722     8.787
    27   6 C        3.860    -0.009    20.700     6.470
    28   1 H        0.925     0.040     2.449     2.447
    29   6 C        3.849    -0.013    20.770     6.482
    30   6 C        2.889    -0.038    28.940     8.820
    31   6 C        2.910    -0.033    28.824     8.804
    32   1 H        0.925     0.025     2.663     2.552
    33   1 H        0.925     0.055     2.261     2.351
    34   1 H        0.925     0.041     2.442     2.444
    35   1 H        0.925     0.052     2.294     2.368
    36   1 H        0.925     0.052     2.291     2.367
    37   1 H        0.925     0.044     2.397     2.421
    38   1 H        0.925     0.043     2.406     2.426
    39   1 H        0.925     0.041     2.440     2.443
    40   1 H        0.925     0.053     2.286     2.364
    41   1 H        0.925     0.055     2.252     2.347
    42   1 H        0.925     0.043     2.404     2.424
    43   1 H        0.925     0.053     2.278     2.360
    44   1 H        0.925     0.044     2.400     2.423
    45   1 H        0.925     0.033     2.541     2.493
    46   1 H        0.925     0.054     2.271     2.356
    47   1 H        0.925     0.039     2.460     2.453
    48   1 H        0.925     0.052     2.298     2.371
    49   1 H        0.925     0.052     2.297     2.370
    50   1 H        0.925     0.043     2.404     2.425
    51   1 H        0.925     0.042     2.424     2.435
    52   1 H        0.925     0.042     2.419     2.432
    53   1 H        0.925     0.052     2.297     2.370
    54   1 H        0.925     0.043     2.403     2.424
    55   1 H        0.925     0.039     2.456     2.451
    56   1 H        0.925     0.052     2.297     2.370
    57   1 H        0.925     0.054     2.271     2.357
    58   1 H        0.925     0.036     2.504     2.475
    59   1 H        0.925     0.037     2.492     2.468
    60   1 H        0.925     0.024     2.675     2.558

 Mol. C6AA /au·bohr⁶  :      32804.121298
 Mol. C8AA /au·bohr⁸  :     759439.322008
 Mol. α(0) /au        :        273.163641


Wiberg/Mayer (AO) data.
largest (>0.10) Wiberg bond orders for each atom

 ---------------------------------------------------------------------------
     #   Z sym  total        # sym  WBO       # sym  WBO       # sym  WBO
 ---------------------------------------------------------------------------
     1   6 C    3.994 --     2 C    0.997    34 H    0.984    33 H    0.982
                            35 H    0.982
     2   6 C    3.942 --     1 C    0.997     4 C    0.991     3 O    0.951
                             5 C    0.937
     3   8 O    2.224 --     9 B    1.124     2 C    0.951
     4   6 C    3.994 --     2 C    0.991    38 H    0.984    37 H    0.984
                            36 H    0.983
     5   6 C    3.941 --     6 C    0.997     7 C    0.991     8 O    0.949
                             2 C    0.937
     6   6 C    3.994 --     5 C    0.997    39 H    0.984    41 H    0.982
                            40 H    0.982
     7   6 C    3.995 --     5 C    0.991    42 H    0.984    44 H    0.984
                            43 H    0.983
     8   8 O    2.234 --     9 B    1.136     5 C    0.949
     9   5 B    3.378 --     8 O    1.136     3 O    1.124    10 C    1.001
    10   6 C    3.924 --    11 C    1.085     9 B    1.001    27 C    0.862
                            29 C    0.801
    11   6 C    3.990 --    12 C    1.853    10 C    1.085    45 H    0.963
    12   6 C    3.989 --    11 C    1.853    14 C    0.983    13 H    0.968
    13   1 H    0.999 --    12 C    0.968
    14   6 C    3.996 --    31 C    0.986    12 C    0.983    16 C    0.974
                            15 H    0.972
    15   1 H    0.998 --    14 C    0.972
    16   6 C    3.975 --    26 C    1.804    17 B    1.004    14 C    0.974
    17   5 B    3.375 --    18 O    1.127    25 O    1.126    16 C    1.004
    18   8 O    2.233 --    17 B    1.127    19 C    0.954
    19   6 C    3.944 --    20 C    0.997    21 C    0.990    18 O    0.954
                            22 C    0.937
    20   6 C    3.994 --    19 C    0.997    47 H    0.985    46 H    0.983
                            48 H    0.982
    21   6 C    3.994 --    19 C    0.990    51 H    0.985    50 H    0.984
                            49 H    0.983
    22   6 C    3.943 --    24 C    0.996    23 C    0.990    25 O    0.953
                            19 C    0.937
    23   6 C    3.995 --    22 C    0.990    52 H    0.985    54 H    0.984
                            53 H    0.983
    24   6 C    3.994 --    22 C    0.996    55 H    0.985    57 H    0.983
                            56 H    0.982
    25   8 O    2.230 --    17 B    1.126    22 C    0.953
    26   6 C    3.988 --    16 C    1.804    27 C    1.077    58 H    0.965
    27   6 C    3.959 --    26 C    1.077    28 H    0.969    29 C    0.920
                            10 C    0.862
    28   1 H    0.998 --    27 C    0.969
    29   6 C    3.945 --    30 C    1.098    59 H    0.972    27 C    0.920
                            10 C    0.801
    30   6 C    3.990 --    31 C    1.842    29 C    1.098    60 H    0.966
    31   6 C    3.986 --    30 C    1.842    14 C    0.986    32 H    0.969
    32   1 H    0.999 --    31 C    0.969
    33   1 H    0.997 --     1 C    0.982
    34   1 H    0.998 --     1 C    0.984
    35   1 H    0.997 --     1 C    0.982
    36   1 H    0.997 --     4 C    0.983
    37   1 H    0.998 --     4 C    0.984
    38   1 H    0.998 --     4 C    0.984
    39   1 H    0.998 --     6 C    0.984
    40   1 H    0.997 --     6 C    0.982
    41   1 H    0.997 --     6 C    0.982
    42   1 H    0.998 --     7 C    0.984
    43   1 H    0.997 --     7 C    0.983
    44   1 H    0.998 --     7 C    0.984
    45   1 H    0.999 --    11 C    0.963
    46   1 H    0.997 --    20 C    0.983
    47   1 H    0.998 --    20 C    0.985
    48   1 H    0.997 --    20 C    0.982
    49   1 H    0.997 --    21 C    0.983
    50   1 H    0.998 --    21 C    0.984
    51   1 H    0.998 --    21 C    0.985
    52   1 H    0.998 --    23 C    0.985
    53   1 H    0.997 --    23 C    0.983
    54   1 H    0.998 --    23 C    0.984
    55   1 H    0.998 --    24 C    0.985
    56   1 H    0.997 --    24 C    0.982
    57   1 H    0.997 --    24 C    0.983
    58   1 H    0.998 --    26 C    0.965
    59   1 H    0.998 --    29 C    0.972
    60   1 H    0.999 --    30 C    0.966
 ---------------------------------------------------------------------------

Topologies differ in total number of bonds
Writing topology from bond orders to xtbtopo.mol

molecular dipole:
                 x           y           z       tot (Debye)
 q only:       -0.254      -0.492      -0.165
   full:       -0.299      -0.582      -0.211       1.747
molecular quadrupole (traceless):
                xx          xy          yy          xz          yz          zz
 q only:      -39.630      17.824      67.791     -30.208      -3.132     -28.162
  q+dip:      -46.213      22.152      80.036     -33.256      -1.870     -33.823
   full:      -46.090      21.526      81.354     -34.529      -3.178     -35.264

           -------------------------------------------------
          |                Geometry Summary                 |
           -------------------------------------------------

      molecular mass/u    :      382.1099696
   center of mass at/Å    :        2.9490036     -35.9480266      21.8304911
  moments of inertia/u·Å² :        0.1134515E+04   0.6938563E+04   0.7172132E+04
rotational constants/cm⁻¹ :        0.1485888E-01   0.2429557E-02   0.2350435E-02

 * 58 selected distances

     #   Z          #   Z                                           value/Å
     1   6 C        2   6 C                                       1.5266886
     2   6 C        3   8 O                                       1.4283848
     2   6 C        4   6 C                                       1.5337867
     5   6 C        6   6 C                                       1.5265116
     5   6 C        7   6 C                                       1.5336507
     5   6 C        8   8 O                                       1.4286459
     3   8 O        9   5 B                                       1.3685651
     8   8 O        9   5 B                                       1.3644149
     9   5 B       10   6 C                                       1.5623490 (max)
    10   6 C       11   6 C                                       1.4641267
    11   6 C       12   6 C                                       1.3306369
    12   6 C       13   1 H                                       1.0822572
    14   6 C       15   1 H                                       1.0913188
    16   6 C       17   5 B                                       1.5580203
    17   5 B       18   8 O                                       1.3681740
    18   8 O       19   6 C                                       1.4262744
    19   6 C       20   6 C                                       1.5270206
    19   6 C       21   6 C                                       1.5341066
    22   6 C       23   6 C                                       1.5342168
    22   6 C       24   6 C                                       1.5269561
    17   5 B       25   8 O                                       1.3682619
    22   6 C       25   8 O                                       1.4269528
    16   6 C       26   6 C                                       1.3390717
    10   6 C       27   6 C                                       1.5344009
    26   6 C       27   6 C                                       1.4627115
    27   6 C       28   1 H                                       1.0843829
    27   6 C       29   6 C                                       1.5043260
    29   6 C       30   6 C                                       1.4548473
    30   6 C       31   6 C                                       1.3315068
    31   6 C       32   1 H                                       1.0822029
     1   6 C       33   1 H                                       1.0872425
     1   6 C       34   1 H                                       1.0865307
     1   6 C       35   1 H                                       1.0852137
     4   6 C       36   1 H                                       1.0877065
     4   6 C       37   1 H                                       1.0872441
     4   6 C       38   1 H                                       1.0857226
     6   6 C       39   1 H                                       1.0865923
     6   6 C       40   1 H                                       1.0851043
     6   6 C       41   1 H                                       1.0871416
     7   6 C       42   1 H                                       1.0858136
     7   6 C       43   1 H                                       1.0875603
     7   6 C       44   1 H                                       1.0871410
    11   6 C       45   1 H                                       1.0828019
    20   6 C       46   1 H                                       1.0872470
    20   6 C       47   1 H                                       1.0866914
    20   6 C       48   1 H                                       1.0851547
    21   6 C       49   1 H                                       1.0876854
    21   6 C       50   1 H                                       1.0871990
    21   6 C       51   1 H                                       1.0859062
    23   6 C       52   1 H                                       1.0859210
    23   6 C       53   1 H                                       1.0875830
    23   6 C       54   1 H                                       1.0871311
    24   6 C       55   1 H                                       1.0867011
    24   6 C       56   1 H                                       1.0850857
    24   6 C       57   1 H                                       1.0871576
    26   6 C       58   1 H                                       1.0829696
    29   6 C       59   1 H                                       1.0815485 (min)
    30   6 C       60   1 H                                       1.0837103

 * 5 distinct bonds (by element types)

   Z      Z             #   av. dist./Å        max./Å        min./Å
   1 H    6 C          32     1.0859271     1.0913188     1.0815485
   5 B    6 C           2     1.5601846     1.5623490     1.5580203
   6 C    6 C          16     1.4790353     1.5344009     1.3306369
   5 B    8 O           4     1.3673540     1.3685651     1.3644149
   6 C    8 O           4     1.4275645     1.4286459     1.4262744


optimized geometry written to: xtbopt.xyz


           -------------------------------------------------
          | TOTAL ENERGY              -82.320835077279 Eh   |
          | GRADIENT NORM               0.000436346561 Eh/α |
          | HOMO-LUMO GAP               3.394019564513 eV   |
           -------------------------------------------------

------------------------------------------------------------------------
 * finished run on 2022/07/09 at 18:33:44.611     
------------------------------------------------------------------------
 total:
 * wall-time:     0 d,  0 h,  0 min,  2.028 sec
 *  cpu-time:     0 d,  0 h,  0 min,  2.027 sec
 * ratio c/w:     1.000 speedup
 SCF:
 * wall-time:     0 d,  0 h,  0 min,  0.068 sec
 *  cpu-time:     0 d,  0 h,  0 min,  0.068 sec
 * ratio c/w:     1.000 speedup
 ANC optimizer:
 * wall-time:     0 d,  0 h,  0 min,  1.948 sec
 *  cpu-time:     0 d,  0 h,  0 min,  1.947 sec
 * ratio c/w:     1.000 speedup

