      -----------------------------------------------------------      
     |                   =====================                   |     
     |                           x T B                           |     
     |                   =====================                   |     
     |                         S. Grimme                         |     
     |          Mulliken Center for Theoretical Chemistry        |     
     |                    University of Bonn                     |     
      -----------------------------------------------------------      

   * xtb version 6.5.0 (homebrew) compiled by 'nhattrup@GPGGRP-SHANNON.CHEME.CMU.EDU' on 

   xtb is free software: you can redistribute it and/or modify it under
   the terms of the GNU Lesser General Public License as published by
   the Free Software Foundation, either version 3 of the License, or
   (at your option) any later version.
   
   xtb is distributed in the hope that it will be useful,
   but WITHOUT ANY WARRANTY; without even the implied warranty of
   MERCHANTABILITY or FITNESS FOR A PARTICULAR PURPOSE.  See the
   GNU Lesser General Public License for more details.
   
   Cite this work as:
   * C. Bannwarth, E. Caldeweyher, S. Ehlert, A. Hansen, P. Pracht,
     J. Seibert, S. Spicher, S. Grimme, WIREs Comput. Mol. Sci., 2020, 11,
     e01493. DOI: 10.1002/wcms.1493
   
   for GFN2-xTB:
   * C. Bannwarth, S. Ehlert and S. Grimme., J. Chem. Theory Comput., 2019,
     15, 1652-1671. DOI: 10.1021/acs.jctc.8b01176
   for GFN1-xTB:
   * S. Grimme, C. Bannwarth, P. Shushkov, J. Chem. Theory Comput., 2017,
     13, 1989-2009. DOI: 10.1021/acs.jctc.7b00118
   for GFN0-xTB:
   * P. Pracht, E. Caldeweyher, S. Ehlert, S. Grimme, ChemRxiv, 2019, preprint.
     DOI: 10.26434/chemrxiv.8326202.v1
   for GFN-FF:
   * S. Spicher and S. Grimme, Angew. Chem. Int. Ed., 2020, 59, 15665-15673.
     DOI: 10.1002/anie.202004239
   
   for ALPB and GBSA implicit solvation:
   * S. Ehlert, M. Stahn, S. Spicher, S. Grimme, J. Chem. Theory Comput.,
     2021, 17, 4250-4261. DOI: 10.1021/acs.jctc.1c00471
   
   for DFT-D4:
   * E. Caldeweyher, C. Bannwarth and S. Grimme, J. Chem. Phys., 2017,
     147, 034112. DOI: 10.1063/1.4993215
   * E. Caldeweyher, S. Ehlert, A. Hansen, H. Neugebauer, S. Spicher,
     C. Bannwarth and S. Grimme, J. Chem. Phys., 2019, 150, 154122.
     DOI: 10.1063/1.5090222
   * E. Caldeweyher, J.-M. Mewes, S. Ehlert and S. Grimme, Phys. Chem. Chem. Phys.
     2020, 22, 8499-8512. DOI: 10.1039/D0CP00502A
   
   for sTDA-xTB:
   * S. Grimme and C. Bannwarth, J. Chem. Phys., 2016, 145, 054103.
     DOI: 10.1063/1.4959605
   
   in the mass-spec context:
   * V. Asgeirsson, C. Bauer and S. Grimme, Chem. Sci., 2017, 8, 4879.
     DOI: 10.1039/c7sc00601b
   * J. Koopman and S. Grimme, ACS Omega 2019, 4, 12, 15120-15133.
     DOI: 10.1021/acsomega.9b02011
   
   for metadynamics refer to:
   * S. Grimme, J. Chem. Theory Comput., 2019, 155, 2847-2862
     DOI: 10.1021/acs.jctc.9b00143
   
   for SPH calculations refer to:
   * S. Spicher and S. Grimme, J. Chem. Theory Comput., 2021, 17, 1701-1714
     DOI: 10.1021/acs.jctc.0c01306
   
   with help from (in alphabetical order)
   P. Atkinson, C. Bannwarth, F. Bohle, G. Brandenburg, E. Caldeweyher
   M. Checinski, S. Dohm, S. Ehlert, S. Ehrlich, I. Gerasimov, C. Hölzer
   A. Katbashev, J. Koopman, C. Lavigne, S. Lehtola, F. März, M. Müller,
   F. Musil, H. Neugebauer, J. Pisarek, C. Plett, P. Pracht, F. Pultar,
   J. Seibert, P. Shushkov, S. Spicher, M. Stahn, M. Steiner, T. Strunk,
   J. Stückrath, T. Rose, and J. Unsleber
   
 * started run on 2022/07/09 at 18:33:35.631     

           -------------------------------------------------
          |                Calculation Setup                |
           -------------------------------------------------

          program call               : /opt/homebrew/bin/xtb bvl_bpin2_scan_7-6_xtb.xyz --chrg 0 --uhf 0 --opt --input xcontrol_bvl_bpin2_scan_7-6_xtb
          coordinate file            : bvl_bpin2_scan_7-6_xtb.xyz
          omp threads                :                     1

   ID    Z sym.   atoms
    1    6 C      1, 2, 4-7, 10-12, 14, 16, 19-24, 26, 27, 29-31
    2    8 O      3, 8, 18, 25
    3    5 B      9, 17
    4    1 H      13, 15, 28, 32-60
constraining bond 12 31 to    2.2778000 Å, actual value:    2.1666486 Å
constraining bond 10 29 to    1.8333000 Å, actual value:    1.9412397 Å

           -------------------------------------------------
          |                 G F N 2 - x T B                 |
           -------------------------------------------------

        Reference                      10.1021/acs.jctc.8b01176
      * Hamiltonian:
        H0-scaling (s, p, d)           1.850000    2.230000    2.230000
        zeta-weighting                 0.500000
      * Dispersion:
        s8                             2.700000
        a1                             0.520000
        a2                             5.000000
        s9                             5.000000
      * Repulsion:
        kExp                           1.500000    1.000000
        rExp                           1.000000
      * Coulomb:
        alpha                          2.000000
        third order                    shell-resolved
        anisotropic                    true
        a3                             3.000000
        a5                             4.000000
        cn-shift                       1.200000
        cn-exp                         4.000000
        max-rad                        5.000000


          ...................................................
          :                      SETUP                      :
          :.................................................:
          :  # basis functions                 144          :
          :  # atomic orbitals                 144          :
          :  # shells                           88          :
          :  # electrons                       150          :
          :  max. iterations                   250          :
          :  Hamiltonian                  GFN2-xTB          :
          :  restarted?                      false          :
          :  GBSA solvation                  false          :
          :  PC potential                    false          :
          :  electronic temp.          300.0000000     K    :
          :  accuracy                    1.0000000          :
          :  -> integral cutoff          0.2500000E+02      :
          :  -> integral neglect         0.1000000E-07      :
          :  -> SCF convergence          0.1000000E-05 Eh   :
          :  -> wf. convergence          0.1000000E-03 e    :
          :  Broyden damping             0.4000000          :
          ...................................................

 iter      E             dE          RMSdq      gap      omega  full diag
   1    -82.9432138 -0.829432E+02  0.472E+00    3.00       0.0  T
   2    -83.3269098 -0.383696E+00  0.290E+00    2.74       1.0  T
   3    -83.3389456 -0.120358E-01  0.142E+00    2.98       1.0  T
   4    -83.3606465 -0.217009E-01  0.511E-01    2.90       1.0  T
   5    -83.3758794 -0.152329E-01  0.212E-01    2.93       1.0  T
   6    -83.3774206 -0.154118E-02  0.110E-01    2.93       1.0  T
   7    -83.3775663 -0.145784E-03  0.342E-02    2.92       1.0  T
   8    -83.3776010 -0.346901E-04  0.152E-02    2.92       1.0  T
   9    -83.3776103 -0.922654E-05  0.608E-03    2.92       2.1  T
  10    -83.3776112 -0.963676E-06  0.290E-03    2.92       4.4  T
  11    -83.3776113 -0.855552E-07  0.119E-03    2.92      10.8  T
  12    -83.3776114 -0.673331E-07  0.346E-04    2.92      37.3  T
  13    -83.3776114 -0.206612E-09  0.184E-04    2.92      70.3  T

   *** convergence criteria satisfied after 13 iterations ***

         #    Occupation            Energy/Eh            Energy/eV
      -------------------------------------------------------------
         1        2.0000           -0.6893987             -18.7595
       ...           ...                  ...                  ...
        69        2.0000           -0.4035525             -10.9812
        70        2.0000           -0.3983827             -10.8405
        71        2.0000           -0.3967088             -10.7950
        72        2.0000           -0.3938283             -10.7166
        73        2.0000           -0.3876883             -10.5495
        74        2.0000           -0.3542012              -9.6383
        75        2.0000           -0.3426101              -9.3229 (HOMO)
        76                         -0.2351534              -6.3988 (LUMO)
        77                         -0.2154225              -5.8619
        78                         -0.1864056              -5.0724
        79                         -0.1362355              -3.7072
        80                         -0.0964768              -2.6253
       ...                                ...                  ...
       144                          0.6863129              18.6755
      -------------------------------------------------------------
                  HL-Gap            0.1074568 Eh            2.9240 eV
             Fermi-level           -0.2888818 Eh           -7.8609 eV

 SCC (total)                   0 d,  0 h,  0 min,  0.071 sec
 SCC setup                      ...        0 min,  0.000 sec (  0.346%)
 Dispersion                     ...        0 min,  0.000 sec (  0.634%)
 classical contributions        ...        0 min,  0.000 sec (  0.259%)
 integral evaluation            ...        0 min,  0.006 sec (  8.712%)
 iterations                     ...        0 min,  0.036 sec ( 50.406%)
 molecular gradient             ...        0 min,  0.028 sec ( 39.140%)
 printout                       ...        0 min,  0.000 sec (  0.492%)

         :::::::::::::::::::::::::::::::::::::::::::::::::::::
         ::                     SUMMARY                     ::
         :::::::::::::::::::::::::::::::::::::::::::::::::::::
         :: total energy             -82.126570899163 Eh    ::
         :: gradient norm              1.679412001706 Eh/a0 ::
         :: HOMO-LUMO gap              2.924047111282 eV    ::
         ::.................................................::
         :: SCC energy               -83.377611382892 Eh    ::
         :: -> isotropic ES            0.148047284178 Eh    ::
         :: -> anisotropic ES          0.011680856334 Eh    ::
         :: -> anisotropic XC          0.026979403574 Eh    ::
         :: -> dispersion             -0.062086095834 Eh    ::
         :: repulsion energy           1.078909355241 Eh    ::
         :: add. restraining           0.171451147648 Eh    ::
         :: total charge              -0.000000000000 e     ::
         :::::::::::::::::::::::::::::::::::::::::::::::::::::

      ----------------------------------------------------------- 
     |                   =====================                   |
     |                        A N C O P T                        |
     |                   =====================                   |
     |               Approximate Normal Coordinate               |
     |                Rational Function Optimizer                |
      ----------------------------------------------------------- 

          ...................................................
          :                      SETUP                      :
          :.................................................:
          :   optimization level            normal          :
          :   max. optcycles                   200          :
          :   ANC micro-cycles                  20          :
          :   degrees of freedom               174          :
          :.................................................:
          :   RF solver                   davidson          :
          :   write xtbopt.log                true          :
          :   linear?                        false          :
          :   energy convergence         0.5000000E-05 Eh   :
          :   grad. convergence          0.1000000E-02 Eh/α :
          :   maximium RF displ.         1.0000000          :
          :   Hlow (freq-cutoff)         0.1000000E-01      :
          :   Hmax (freq-cutoff)         5.0000000          :
          :   S6 in model hess.         20.0000000          :
          ...................................................

generating ANC from model Hessian ...
Using Lindh-Hessian (1995)
 Shifting diagonal of input Hessian by   0.20019353480576021     
 Lowest  eigenvalues of input Hessian
    0.010000    0.148365    0.000000    0.000000    0.000000    0.000000
    0.000000    0.000000    0.200306    0.200333    0.200491    0.201841
    0.202101    0.203019    0.203493    0.203553    0.204777    0.205325
 Highest eigenvalues
    1.915327    2.087962    2.104675    2.165354    8.854457    8.913502


........................................................................
.............................. CYCLE    1 ..............................
........................................................................
   1    -83.3776114 -0.833776E+02  0.751E-05    2.92       0.0  T
   2    -83.3776114 -0.281631E-09  0.494E-05    2.92     261.3  T
   3    -83.3776114 -0.133269E-09  0.190E-05    2.92     679.6  T
     SCC iter.                  ...        0 min,  0.009 sec
     gradient                   ...        0 min,  0.028 sec
 * total energy  :   -82.1265709 Eh     change       -0.1813248E-08 Eh
   gradient norm :     1.6794145 Eh/α   predicted     0.0000000E+00 (-100.00%)
   displ. norm   :     0.3111791 α      lambda       -0.5161816E+00
   maximum displ.:     0.2987666 α      in ANC's #174, #173, #127, ...

........................................................................
.............................. CYCLE    2 ..............................
........................................................................
   1    -83.3798932 -0.833799E+02  0.333E-01    3.25       0.0  T
   2    -83.3798414  0.517880E-04  0.281E-01    3.23       1.0  T
   3    -83.3814213 -0.157988E-02  0.149E-01    3.24       1.0  T
   4    -83.3816581 -0.236780E-03  0.346E-02    3.23       1.0  T
   5    -83.3817157 -0.576227E-04  0.958E-03    3.23       1.3  T
   6    -83.3817195 -0.385317E-05  0.387E-03    3.23       3.3  T
   7    -83.3817198 -0.223313E-06  0.121E-03    3.23      10.6  T
   8    -83.3817198 -0.449229E-08  0.539E-04    3.23      24.0  T
   9    -83.3817198 -0.105595E-07  0.209E-04    3.23      61.8  T
     SCC iter.                  ...        0 min,  0.024 sec
     gradient                   ...        0 min,  0.027 sec
 * total energy  :   -82.2598311 Eh     change       -0.1332602E+00 Eh
   gradient norm :     0.8289317 Eh/α   predicted    -0.2832084E+00 ( 112.52%)
   displ. norm   :     0.1049127 α      lambda       -0.8336578E-01
   maximum displ.:     0.0983713 α      in ANC's #174, #173, #37, ...

........................................................................
.............................. CYCLE    3 ..............................
........................................................................
   1    -83.3801390 -0.833801E+02  0.112E-01    3.13       0.0  T
   2    -83.3801457 -0.673849E-05  0.945E-02    3.14       1.0  T
   3    -83.3803516 -0.205919E-03  0.507E-02    3.13       1.0  T
   4    -83.3803767 -0.250672E-04  0.132E-02    3.14       1.0  T
   5    -83.3803847 -0.804369E-05  0.383E-03    3.14       3.4  T
   6    -83.3803854 -0.709486E-06  0.133E-03    3.14       9.7  T
   7    -83.3803854 -0.203992E-07  0.433E-04    3.14      29.8  T
   8    -83.3803854 -0.369866E-09  0.217E-04    3.14      59.6  T
     SCC iter.                  ...        0 min,  0.022 sec
     gradient                   ...        0 min,  0.028 sec
 * total energy  :   -82.3023520 Eh     change       -0.4252085E-01 Eh
   gradient norm :     0.0287056 Eh/α   predicted    -0.4216120E-01 (  -0.85%)
   displ. norm   :     0.0416092 α      lambda       -0.8655226E-03
   maximum displ.:     0.0182969 α      in ANC's #37, #36, #109, ...

........................................................................
.............................. CYCLE    4 ..............................
........................................................................
   1    -83.3799277 -0.833799E+02  0.279E-02    3.13       0.0  T
   2    -83.3799297 -0.197307E-05  0.178E-02    3.13       1.0  T
   3    -83.3799236  0.609317E-05  0.135E-02    3.13       1.0  T
   4    -83.3799329 -0.935333E-05  0.247E-03    3.13       5.2  T
   5    -83.3799332 -0.290821E-06  0.653E-04    3.13      19.8  T
   6    -83.3799332 -0.180428E-07  0.293E-04    3.13      44.1  T
     SCC iter.                  ...        0 min,  0.017 sec
     gradient                   ...        0 min,  0.028 sec
 * total energy  :   -82.3030547 Eh     change       -0.7027692E-03 Eh
   gradient norm :     0.0170198 Eh/α   predicted    -0.4337707E-03 ( -38.28%)
   displ. norm   :     0.1178696 α      lambda       -0.1318783E-02
   maximum displ.:     0.0530154 α      in ANC's #37, #36, #1, ...

........................................................................
.............................. CYCLE    5 ..............................
........................................................................
   1    -83.3788857 -0.833789E+02  0.719E-02    3.13       0.0  T
   2    -83.3788918 -0.606361E-05  0.440E-02    3.13       1.0  T
   3    -83.3788376  0.542261E-04  0.333E-02    3.13       1.0  T
   4    -83.3789044 -0.668054E-04  0.454E-03    3.13       2.8  T
   5    -83.3789054 -0.974555E-06  0.136E-03    3.13       9.5  T
   6    -83.3789054 -0.688621E-07  0.632E-04    3.13      20.4  T
   7    -83.3789054 -0.603144E-08  0.207E-04    3.13      62.4  T
     SCC iter.                  ...        0 min,  0.019 sec
     gradient                   ...        0 min,  0.028 sec
 * total energy  :   -82.3036970 Eh     change       -0.6422742E-03 Eh
   gradient norm :     0.0157682 Eh/α   predicted    -0.6690522E-03 (   4.17%)
   displ. norm   :     0.3296467 α      lambda       -0.1663279E-02
   maximum displ.:     0.2925554 α      in ANC's #1, #37, #36, ...

........................................................................
.............................. CYCLE    6 ..............................
........................................................................
   1    -83.3725921 -0.833726E+02  0.192E-01    3.09       0.0  T
   2    -83.3726051 -0.129809E-04  0.114E-01    3.09       1.0  T
   3    -83.3725254  0.796862E-04  0.386E-02    3.09       1.0  T
   4    -83.3726119 -0.865639E-04  0.678E-03    3.09       1.9  T
   5    -83.3726142 -0.221214E-05  0.252E-03    3.09       5.1  T
   6    -83.3726142 -0.874796E-07  0.145E-03    3.09       8.9  T
   7    -83.3726143 -0.649750E-07  0.303E-04    3.09      42.7  T
   8    -83.3726143 -0.179044E-08  0.150E-04    3.09      85.9  T
     SCC iter.                  ...        0 min,  0.022 sec
     gradient                   ...        0 min,  0.028 sec
 * total energy  :   -82.3004294 Eh     change        0.3267612E-02 Eh
   gradient norm :     0.0663224 Eh/α   predicted    -0.9231473E-03 (-128.25%)
   displ. norm   :     0.2431400 α      lambda       -0.7229656E-02
   maximum displ.:     0.2283651 α      in ANC's #1, #37, #36, ...

........................................................................
.............................. CYCLE    7 ..............................
........................................................................
   1    -83.3795449 -0.833795E+02  0.144E-01    3.12       0.0  T
   2    -83.3795534 -0.847499E-05  0.862E-02    3.12       1.0  T
   3    -83.3795234  0.299491E-04  0.235E-02    3.12       1.0  T
   4    -83.3795561 -0.327157E-04  0.516E-03    3.12       2.5  T
   5    -83.3795574 -0.125623E-05  0.184E-03    3.12       7.0  T
   6    -83.3795574 -0.324963E-07  0.110E-03    3.12      11.8  T
   7    -83.3795575 -0.421897E-07  0.214E-04    3.12      60.3  T
   8    -83.3795575 -0.735142E-09  0.921E-05    3.12     140.2  T
     SCC iter.                  ...        0 min,  0.022 sec
     gradient                   ...        0 min,  0.028 sec
 * total energy  :   -82.3040704 Eh     change       -0.3641042E-02 Eh
   gradient norm :     0.0177200 Eh/α   predicted    -0.3817751E-02 (   4.85%)
   displ. norm   :     0.0335992 α      lambda       -0.2301120E-03
   maximum displ.:     0.0197678 α      in ANC's #1, #36, #37, ...

........................................................................
.............................. CYCLE    8 ..............................
........................................................................
   1    -83.3801071 -0.833801E+02  0.178E-02    3.12       0.0  T
   2    -83.3801074 -0.232840E-06  0.111E-02    3.12       1.2  T
   3    -83.3801045  0.284573E-05  0.696E-03    3.12       1.9  T
   4    -83.3801077 -0.324473E-05  0.962E-04    3.12      13.4  T
   5    -83.3801078 -0.450104E-07  0.300E-04    3.12      43.1  T
   6    -83.3801078 -0.341042E-08  0.154E-04    3.12      84.1  T
     SCC iter.                  ...        0 min,  0.016 sec
     gradient                   ...        0 min,  0.028 sec
 * total energy  :   -82.3042454 Eh     change       -0.1750051E-03 Eh
   gradient norm :     0.0123501 Eh/α   predicted    -0.1157366E-03 ( -33.87%)
   displ. norm   :     0.1004444 α      lambda       -0.4429914E-03
   maximum displ.:     0.0483349 α      in ANC's #36, #37, #28, ...

........................................................................
.............................. CYCLE    9 ..............................
........................................................................
   1    -83.3812094 -0.833812E+02  0.489E-02    3.11       0.0  T
   2    -83.3812104 -0.965161E-06  0.293E-02    3.11       1.0  T
   3    -83.3812068  0.360039E-05  0.749E-03    3.11       1.7  T
   4    -83.3812107 -0.392230E-05  0.159E-03    3.11       8.1  T
   5    -83.3812108 -0.130876E-06  0.551E-04    3.11      23.4  T
   6    -83.3812108 -0.412381E-08  0.354E-04    3.11      36.5  T
     SCC iter.                  ...        0 min,  0.017 sec
     gradient                   ...        0 min,  0.028 sec
 * total energy  :   -82.3045524 Eh     change       -0.3069521E-03 Eh
   gradient norm :     0.0111132 Eh/α   predicted    -0.2259385E-03 ( -26.39%)
   displ. norm   :     0.1046714 α      lambda       -0.2575054E-03
   maximum displ.:     0.0503684 α      in ANC's #37, #36, #28, ...

........................................................................
.............................. CYCLE   10 ..............................
........................................................................
   1    -83.3819675 -0.833820E+02  0.500E-02    3.09       0.0  T
   2    -83.3819679 -0.418212E-06  0.296E-02    3.09       1.0  T
   3    -83.3819657  0.221621E-05  0.627E-03    3.09       2.1  T
   4    -83.3819681 -0.244116E-05  0.109E-03    3.09      11.9  T
   5    -83.3819682 -0.462918E-07  0.494E-04    3.09      26.1  T
   6    -83.3819682 -0.153732E-08  0.308E-04    3.09      41.9  T
     SCC iter.                  ...        0 min,  0.017 sec
     gradient                   ...        0 min,  0.028 sec
 * total energy  :   -82.3047185 Eh     change       -0.1661276E-03 Eh
   gradient norm :     0.0065541 Eh/α   predicted    -0.1313080E-03 ( -20.96%)
   displ. norm   :     0.0493110 α      lambda       -0.8066795E-04
   maximum displ.:     0.0233577 α      in ANC's #28, #36, #37, ...

........................................................................
.............................. CYCLE   11 ..............................
........................................................................
   1    -83.3826564 -0.833827E+02  0.230E-02    3.09       0.0  T
   2    -83.3826565 -0.626711E-07  0.136E-02    3.09       1.0  T
   3    -83.3826551  0.140316E-05  0.483E-03    3.09       2.7  T
   4    -83.3826566 -0.151519E-05  0.470E-04    3.09      27.5  T
   5    -83.3826566 -0.622447E-08  0.245E-04    3.09      52.7  T
   6    -83.3826566 -0.878245E-09  0.117E-04    3.09     110.1  T
     SCC iter.                  ...        0 min,  0.016 sec
     gradient                   ...        0 min,  0.028 sec
 * total energy  :   -82.3047747 Eh     change       -0.5614812E-04 Eh
   gradient norm :     0.0035221 Eh/α   predicted    -0.4041699E-04 ( -28.02%)
   displ. norm   :     0.0369807 α      lambda       -0.5357106E-04
   maximum displ.:     0.0191925 α      in ANC's #28, #17, #14, ...

........................................................................
.............................. CYCLE   12 ..............................
........................................................................
   1    -83.3834600 -0.833835E+02  0.161E-02    3.08       0.0  T
   2    -83.3834600 -0.540306E-07  0.973E-03    3.08       1.3  T
   3    -83.3834584  0.164941E-05  0.513E-03    3.08       2.5  T
   4    -83.3834602 -0.179324E-05  0.441E-04    3.08      29.3  T
   5    -83.3834602 -0.706041E-08  0.198E-04    3.08      65.2  T
   6    -83.3834602 -0.887454E-09  0.112E-04    3.08     115.7  T
     SCC iter.                  ...        0 min,  0.017 sec
     gradient                   ...        0 min,  0.028 sec
 * total energy  :   -82.3048132 Eh     change       -0.3857856E-04 Eh
   gradient norm :     0.0027405 Eh/α   predicted    -0.2681978E-04 ( -30.48%)
   displ. norm   :     0.0350638 α      lambda       -0.4480940E-04
   maximum displ.:     0.0181569 α      in ANC's #28, #17, #14, ...

........................................................................
.............................. CYCLE   13 ..............................
........................................................................
   1    -83.3842675 -0.833843E+02  0.141E-02    3.08       0.0  T
   2    -83.3842675 -0.526465E-07  0.859E-03    3.08       1.5  T
   3    -83.3842660  0.152769E-05  0.500E-03    3.08       2.6  T
   4    -83.3842677 -0.168213E-05  0.480E-04    3.08      26.9  T
   5    -83.3842677 -0.878293E-08  0.216E-04    3.08      59.8  T
   6    -83.3842677 -0.150909E-08  0.109E-04    3.08     118.6  T
     SCC iter.                  ...        0 min,  0.016 sec
     gradient                   ...        0 min,  0.028 sec
 * total energy  :   -82.3048454 Eh     change       -0.3212557E-04 Eh
   gradient norm :     0.0028254 Eh/α   predicted    -0.2245212E-04 ( -30.11%)
   displ. norm   :     0.0332630 α      lambda       -0.3545865E-04
   maximum displ.:     0.0151868 α      in ANC's #28, #17, #14, ...

........................................................................
.............................. CYCLE   14 ..............................
........................................................................
   1    -83.3847298 -0.833847E+02  0.126E-02    3.08       0.0  T
   2    -83.3847298 -0.432416E-07  0.764E-03    3.08       1.7  T
   3    -83.3847288  0.101982E-05  0.420E-03    3.08       3.1  T
   4    -83.3847300 -0.112691E-05  0.474E-04    3.08      27.2  T
   5    -83.3847300 -0.927388E-08  0.221E-04    3.08      58.4  T
   6    -83.3847300 -0.160550E-08  0.865E-05    3.08     149.3  T
     SCC iter.                  ...        0 min,  0.017 sec
     gradient                   ...        0 min,  0.028 sec
 * total energy  :   -82.3048704 Eh     change       -0.2501715E-04 Eh
   gradient norm :     0.0025864 Eh/α   predicted    -0.1775153E-04 ( -29.04%)
   displ. norm   :     0.0273305 α      lambda       -0.2450945E-04
   maximum displ.:     0.0109955 α      in ANC's #17, #28, #36, ...

........................................................................
.............................. CYCLE   15 ..............................
........................................................................
   1    -83.3846873 -0.833847E+02  0.103E-02    3.08       0.0  T
   2    -83.3846873 -0.398835E-07  0.613E-03    3.08       2.1  T
   3    -83.3846870  0.351813E-06  0.263E-03    3.08       4.9  T
   4    -83.3846873 -0.390021E-06  0.339E-04    3.08      38.1  T
   5    -83.3846874 -0.498328E-08  0.206E-04    3.08      62.6  T
     SCC iter.                  ...        0 min,  0.014 sec
     gradient                   ...        0 min,  0.028 sec
 * total energy  :   -82.3048875 Eh     change       -0.1715718E-04 Eh
   gradient norm :     0.0019446 Eh/α   predicted    -0.1227535E-04 ( -28.45%)
   displ. norm   :     0.0315591 α      lambda       -0.1624442E-04
   maximum displ.:     0.0124200 α      in ANC's #17, #36, #37, ...

........................................................................
.............................. CYCLE   16 ..............................
........................................................................
   1    -83.3841224 -0.833841E+02  0.119E-02    3.09       0.0  T
   2    -83.3841225 -0.778957E-07  0.713E-03    3.09       1.8  T
   3    -83.3841221  0.411206E-06  0.293E-03    3.09       4.4  T
   4    -83.3841226 -0.465816E-06  0.331E-04    3.09      39.0  T
   5    -83.3841226 -0.381515E-08  0.159E-04    3.09      81.3  T
     SCC iter.                  ...        0 min,  0.014 sec
     gradient                   ...        0 min,  0.028 sec
 * total energy  :   -82.3049015 Eh     change       -0.1397821E-04 Eh
   gradient norm :     0.0017403 Eh/α   predicted    -0.8136968E-05 ( -41.79%)
   displ. norm   :     0.0128728 α      lambda       -0.8262649E-05
   maximum displ.:     0.0045102 α      in ANC's #17, #6, #14, ...

........................................................................
.............................. CYCLE   17 ..............................
........................................................................
   1    -83.3837644 -0.833838E+02  0.572E-03    3.09       0.0  T
   2    -83.3837644 -0.143113E-07  0.351E-03    3.09       3.7  T
   3    -83.3837642  0.163993E-06  0.173E-03    3.09       7.4  T
   4    -83.3837644 -0.182165E-06  0.199E-04    3.09      65.0  T
   5    -83.3837644 -0.143930E-08  0.959E-05    3.09     134.6  T
     SCC iter.                  ...        0 min,  0.014 sec
     gradient                   ...        0 min,  0.033 sec
 * total energy  :   -82.3049113 Eh     change       -0.9775026E-05 Eh
   gradient norm :     0.0013492 Eh/α   predicted    -0.4137210E-05 ( -57.68%)
   displ. norm   :     0.0301931 α      lambda       -0.1188173E-04
   maximum displ.:     0.0129297 α      in ANC's #17, #14, #6, ...

........................................................................
.............................. CYCLE   18 ..............................
........................................................................
   1    -83.3835022 -0.833835E+02  0.111E-02    3.09       0.0  T
   2    -83.3835022 -0.269122E-07  0.665E-03    3.09       1.9  T
   3    -83.3835021  0.134029E-06  0.168E-03    3.09       7.7  T
   4    -83.3835022 -0.150168E-06  0.230E-04    3.09      56.0  T
   5    -83.3835022 -0.997417E-09  0.119E-04    3.09     108.8  T
     SCC iter.                  ...        0 min,  0.014 sec
     gradient                   ...        0 min,  0.028 sec
 * total energy  :   -82.3049227 Eh     change       -0.1137235E-04 Eh
   gradient norm :     0.0010512 Eh/α   predicted    -0.5946010E-05 ( -47.72%)
   displ. norm   :     0.0171775 α      lambda       -0.4207647E-05
   maximum displ.:     0.0065637 α      in ANC's #17, #6, #14, ...

........................................................................
.............................. CYCLE   19 ..............................
........................................................................
   1    -83.3836359 -0.833836E+02  0.534E-03    3.09       0.0  T
   2    -83.3836359 -0.843316E-08  0.321E-03    3.09       4.0  T
   3    -83.3836359  0.369464E-07  0.844E-04    3.09      15.3  T
   4    -83.3836359 -0.410075E-07  0.129E-04    3.09     100.0  T
     SCC iter.                  ...        0 min,  0.011 sec
     gradient                   ...        0 min,  0.028 sec
 * total energy  :   -82.3049275 Eh     change       -0.4801360E-05 Eh
   gradient norm :     0.0008971 Eh/α   predicted    -0.2109256E-05 ( -56.07%)
   displ. norm   :     0.0236062 α      lambda       -0.5250916E-05
   maximum displ.:     0.0092422 α      in ANC's #6, #17, #14, ...

   *** GEOMETRY OPTIMIZATION CONVERGED AFTER 19 ITERATIONS ***

------------------------------------------------------------------------
 total energy gain   :        -0.1783566 Eh     -111.9204 kcal/mol
 total RMSD          :         0.0827638 a0        0.0438 Å
 total power (kW/mol):       -24.6460592 (step) -455.0085 (real)
------------------------------------------------------------------------

 ANCopt (total)                0 d,  0 h,  0 min,  1.029 sec
 optimizer setup                ...        0 min,  0.000 sec (  0.009%)
 model hessian                  ...        0 min,  0.032 sec (  3.119%)
 ANC generation                 ...        0 min,  0.003 sec (  0.264%)
 coordinate transformation      ...        0 min,  0.000 sec (  0.026%)
 single point calculation       ...        0 min,  0.987 sec ( 95.916%)
 optimization log               ...        0 min,  0.004 sec (  0.392%)
 hessian update                 ...        0 min,  0.000 sec (  0.042%)
 rational function              ...        0 min,  0.002 sec (  0.156%)

================
 final structure:
================
60
 xtb: 6.5.0 (homebrew)
C            3.46044893929473      -37.75709821376791       15.91708908192965
C            3.72887810462500      -38.15058730369064       17.36765920205669
O            3.26357499220815      -37.11606914332229       18.23434146604268
C            2.92262408255295      -39.41191700357224       17.70321303986774
C            5.24721806530228      -38.27835824993509       17.75250515571884
C            5.77976242071985      -39.70809262093912       17.81139107594259
C            6.16098429818310      -37.43599100905522       16.85362168391146
O            5.30005225292145      -37.69652799215826       19.05563986433918
B            4.16733161549226      -36.95680344074737       19.25245943478116
C            3.91083837665904      -36.06778989484545       20.49906098751637
C            4.92442224296290      -35.98423066966951       21.51519678803568
C            4.93604907520262      -35.22988126964650       22.62507343594529
H            5.82402786512536      -35.24816514700863       23.24331959738641
C            3.86301922187173      -34.26988059001622       23.04790941924556
H            4.09407595840610      -33.86824443977380       24.03588456952286
C            2.48048148457213      -34.87058513534062       23.10840019469264
B            1.73077869351770      -34.87158942229436       24.47625102982063
O            2.24214941059919      -34.36877693657169       25.64086948664781
C            1.36880372919508      -34.71856920836630       26.71410377169743
C            1.23983984186221      -33.53938128833105       27.67548138676619
C            2.01893895394671      -35.89790752768133       27.44904414338878
C            0.04044542221579      -35.11956145948943       25.97555655722695
C           -0.96131166042200      -33.96205896123244       25.87511871628790
C           -0.67034093347667      -36.34441673215149       26.54722079809003
O            0.48245018303555      -35.40308683049430       24.64909887317551
C            1.90928875971580      -35.43830548988049       22.04347002644197
C            2.48502106088480      -35.56680063902660       20.69413898986376
H            1.80083293386958      -36.06065576523809       20.00909834281611
C            3.21764345143048      -34.44018553513870       20.03736435492904
C            3.80797311349520      -33.32356685865710       20.69864823757703
C            4.07928717582232      -33.21043110187308       22.01035391407343
H            4.58211073511739      -32.31382807188000       22.34857229096009
H            2.38578842975606      -37.71592142418032       15.75706588500868
H            3.88858091303972      -38.49369371785769       15.24278981837105
H            3.87128535491032      -36.77802900551799       15.69280114960930
H            1.86539376734899      -39.19146507580459       17.57398438543807
H            3.08238222834019      -39.69540177927257       18.74052558153826
H            3.19369109547108      -40.23617339154350       17.05029394065750
H            5.66394820838103      -40.19359748968618       16.84608625274122
H            5.26644192561527      -40.28667957900823       18.57246109267259
H            6.83622276375599      -39.67967858362002       18.06626338232678
H            6.20588188146619      -37.84158649715692       15.84744226964301
H            7.16078077577023      -37.43633792770817       17.28161404763725
H            5.81090230899877      -36.40713940778805       16.82166139438988
H            5.80255559709404      -36.57787265227572       21.29046256931384
H            2.20497499326649      -33.35652254011905       28.14139083921997
H            0.51282871212149      -33.76595075106960       28.45083668874962
H            0.94218145946733      -32.63651603680230       27.15227111157771
H            3.00691347148328      -35.59304415612208       27.78646719504085
H            2.14075030420814      -36.73992058630501       26.77223135822833
H            1.42868943851157      -36.19875334012644       28.30943579299608
H           -1.37447280942004      -33.71434004054118       26.84830515536771
H           -1.76988404105319      -34.26372048767788       25.21325468681009
H           -0.48346593339184      -33.08667213656568       25.44264526016655
H           -0.93274388993422      -36.17576187339218       27.58813281547151
H           -0.04952375074395      -37.23078450058648       26.46769819627779
H           -1.58038699147181      -36.51921062446918       25.97874392527218
H            0.92246800188896      -35.86456764688727       22.16833872450243
H            3.11644416109489      -34.38600396738645       18.96476595728983
H            4.10742175711619      -32.51223082873401       20.04480460698464

 Bond Distances (Angstroems)
 ---------------------------
C1-C2=1.5268         C1-H33=1.0873        C1-H34=1.0865        C1-H35=1.0852        C2-C1=1.5268         C2-O3=1.4275         
C2-C4=1.5341         C2-C5=1.5716         O3-C2=1.4275         O3-B9=1.3707         C4-C2=1.5341         C4-H36=1.0877        
C4-H37=1.0872        C4-H38=1.0859        C5-C2=1.5716         C5-C6=1.5268         C5-C7=1.5338         C5-O8=1.4281         
C6-C5=1.5268         C6-H39=1.0867        C6-H40=1.0851        C6-H41=1.0871        C7-C5=1.5338         C7-H42=1.0858        
C7-H43=1.0876        C7-H44=1.0873        O8-C5=1.4281         O8-B9=1.3671         B9-O3=1.3707         B9-O8=1.3671         
B9-C10=1.5525        C10-B9=1.5525        C10-C11=1.4377       C10-C27=1.5238       C10-C29=1.8283       C11-C10=1.4377       
C11-C12=1.3420       C11-H45=1.0835       C12-C11=1.3420       C12-H13=1.0822       C12-C14=1.5006       H13-C12=1.0822       
C14-C12=1.5006       C14-H15=1.0912       C14-C16=1.5086       C14-C31=1.4986       H15-C14=1.0912       C16-C14=1.5086       
C16-B17=1.5598       C16-C26=1.3352       B17-C16=1.5598       B17-O18=1.3677       B17-O25=1.3677       O18-B17=1.3677       
O18-C19=1.4272       C19-O18=1.4272       C19-C20=1.5269       C19-C21=1.5342       C19-C22=1.5719       C20-C19=1.5269       
C20-H46=1.0872       C20-H47=1.0868       C20-H48=1.0851       C21-C19=1.5342       C21-H49=1.0876       C21-H50=1.0872       
C21-H51=1.0859       C22-C19=1.5719       C22-C23=1.5341       C22-C24=1.5272       C22-O25=1.4266       C23-C22=1.5341       
C23-H52=1.0859       C23-H53=1.0876       C23-H54=1.0870       C24-C22=1.5272       C24-H55=1.0866       C24-H56=1.0851       
C24-H57=1.0872       O25-B17=1.3677       O25-C22=1.4266       C26-C16=1.3352       C26-C27=1.4726       C26-H58=1.0822       
C27-C10=1.5238       C27-C26=1.4726       C27-H28=1.0869       C27-C29=1.4958       H28-C27=1.0869       C29-C10=1.8283       
C29-C27=1.4958       C29-C30=1.4257       C29-H59=1.0787       C30-C29=1.4257       C30-C31=1.3442       C30-H60=1.0842       
C31-C14=1.4986       C31-C30=1.3442       C31-H32=1.0822       H32-C31=1.0822       H33-C1=1.0873        H34-C1=1.0865        
H35-C1=1.0852        H36-C4=1.0877        H37-C4=1.0872        H38-C4=1.0859        H39-C6=1.0867        H40-C6=1.0851        
H41-C6=1.0871        H42-C7=1.0858        H43-C7=1.0876        H44-C7=1.0873        H45-C11=1.0835       H46-C20=1.0872       
H47-C20=1.0868       H48-C20=1.0851       H49-C21=1.0876       H50-C21=1.0872       H51-C21=1.0859       H52-C23=1.0859       
H53-C23=1.0876       H54-C23=1.0870       H55-C24=1.0866       H56-C24=1.0851       H57-C24=1.0872       H58-C26=1.0822       
H59-C29=1.0787       H60-C30=1.0842       
 C  H  Rav=1.0859 sigma=0.0022  Rmin=1.0787  Rmax=1.0912    32
 C  B  Rav=1.5561 sigma=0.0037  Rmin=1.5525  Rmax=1.5598     2
 C  C  Rav=1.5046 sigma=0.0983  Rmin=1.3352  Rmax=1.8283    22
 O  B  Rav=1.3683 sigma=0.0014  Rmin=1.3671  Rmax=1.3707     4
 O  C  Rav=1.4274 sigma=0.0005  Rmin=1.4266  Rmax=1.4281     4

 selected bond angles (degree)
 --------------------
H33-C1-C2=108.87               H34-C1-C2=110.22               H34-C1-H33=108.89              H35-C1-C2=111.24               
H35-C1-H33=108.03              H35-C1-H34=109.52              O3-C2-C1=109.43                C4-C2-C1=109.11                
C4-C2-O3=106.96                C5-C2-C1=115.05                C5-C2-O3=103.01                C5-C2-C4=112.79                
B9-O3-C2=108.68                H36-C4-C2=108.55               H37-C4-C2=110.23               H37-C4-H36=108.00              
H38-C4-C2=111.18               H38-C4-H36=108.97              H38-C4-H37=109.82              C6-C5-C2=115.00                
C7-C5-C2=112.79                C7-C5-C6=109.21                O8-C5-C2=103.07                O8-C5-C6=109.48                
O8-C5-C7=106.80                H39-C6-C5=110.30               H40-C6-C5=111.18               H40-C6-H39=109.53              
H41-C6-C5=108.88               H41-C6-H39=108.87              H41-C6-H40=108.01              H42-C7-C5=111.26               
H43-C7-C5=108.47               H43-C7-H42=109.06              H44-C7-C5=110.19               H44-C7-H42=109.85              
H44-C7-H43=107.93              B9-O8-C5=108.73                O8-B9-O3=112.12                C10-B9-O3=123.65               
C10-B9-O8=124.22               C11-C10-B9=118.97              C27-C10-B9=116.47              C27-C10-C11=123.37             
C29-C10-B9=111.69              C29-C10-C11=113.21             C29-C10-C27= 52.04             

 selected dihedral angles (degree)
 ---------------------------------
O3-C2-C1-H33=294.34           O3-C2-C1-H34=174.97           O3-C2-C1-H35= 53.28           C4-C2-C1-H33= 51.06           
C4-C2-C1-H34=291.69           C4-C2-C1-H35=170.00           C5-C2-C1-H33=178.97           C5-C2-C1-H34= 59.60           
C5-C2-C1-H35=297.91           B9-O3-C2-C1=219.92            B9-O3-C2-C4=101.86            B9-O3-C2-C5=342.77            
H36-C4-C2-C1=299.43           H36-C4-C2-O3= 57.71           H36-C4-C2-C5=170.26           H37-C4-C2-C1=181.32           
H37-C4-C2-O3=299.60           H37-C4-C2-C5= 52.15           H38-C4-C2-C1= 59.28           H38-C4-C2-O3=177.57           
H38-C4-C2-C5=290.11           C6-C5-C2-C1=258.74            C6-C5-C2-O3=139.72            C6-C5-C2-C4= 24.77            
C7-C5-C2-C1= 24.88            C7-C5-C2-O3=265.87            C7-C5-C2-C4=150.91            O8-C5-C2-C1=139.67            
O8-C5-C2-O3= 20.66            O8-C5-C2-C4=265.71            H39-C6-C5-C2= 59.55           H39-C6-C5-C7=291.59           
H39-C6-C5-O8=174.99           H40-C6-C5-C2=297.84           H40-C6-C5-C7=169.87           H40-C6-C5-O8= 53.27           
H41-C6-C5-C2=178.96           H41-C6-C5-C7= 51.00           H41-C6-C5-O8=294.39           H42-C7-C5-C2=290.23           
H42-C7-C5-C6= 59.41           H42-C7-C5-O8=177.71           H43-C7-C5-C2=170.27           H43-C7-C5-C6=299.45           
H43-C7-C5-O8= 57.75           H44-C7-C5-C2= 52.32           H44-C7-C5-C6=181.50           H44-C7-C5-O8=299.80           
B9-O8-C5-C2=342.92            B9-O8-C5-C6=220.09            B9-O8-C5-C7=101.97            O8-B9-O3-C2=  7.48            
C10-B9-O3-C2=189.01           O3-B9-O8-C5=  7.19            C10-B9-O8-C5=185.64           C11-C10-B9-O3=179.34          
C11-C10-B9-O8=  1.05          C27-C10-B9-O3= 11.38          C27-C10-B9-O8=193.10          C29-C10-B9-O3=314.16          
C29-C10-B9-O8=135.88          
           -------------------------------------------------
          |                Final Singlepoint                |
           -------------------------------------------------

          ...................................................
          :                      SETUP                      :
          :.................................................:
          :  # basis functions                 144          :
          :  # atomic orbitals                 144          :
          :  # shells                           88          :
          :  # electrons                       150          :
          :  max. iterations                   250          :
          :  Hamiltonian                  GFN2-xTB          :
          :  restarted?                      false          :
          :  GBSA solvation                  false          :
          :  PC potential                    false          :
          :  electronic temp.          300.0000000     K    :
          :  accuracy                    1.0000000          :
          :  -> integral cutoff          0.2500000E+02      :
          :  -> integral neglect         0.1000000E-07      :
          :  -> SCF convergence          0.1000000E-05 Eh   :
          :  -> wf. convergence          0.1000000E-03 e    :
          :  Broyden damping             0.4000000          :
          ...................................................

 iter      E             dE          RMSdq      gap      omega  full diag
   1    -83.3836359 -0.833836E+02  0.565E-05    3.09       0.0  T
   2    -83.3836359 -0.234337E-10  0.369E-05    3.09     349.8  T
   3    -83.3836359 -0.183320E-10  0.230E-05    3.09     561.3  T

   *** convergence criteria satisfied after 3 iterations ***

         #    Occupation            Energy/Eh            Energy/eV
      -------------------------------------------------------------
         1        2.0000           -0.6905896             -18.7919
       ...           ...                  ...                  ...
        69        2.0000           -0.4029130             -10.9638
        70        2.0000           -0.3993010             -10.8655
        71        2.0000           -0.3968315             -10.7983
        72        2.0000           -0.3946938             -10.7402
        73        2.0000           -0.3880490             -10.5594
        74        2.0000           -0.3550698              -9.6619
        75        2.0000           -0.3429844              -9.3331 (HOMO)
        76                         -0.2294987              -6.2450 (LUMO)
        77                         -0.2108124              -5.7365
        78                         -0.1843995              -5.0178
        79                         -0.1403843              -3.8201
        80                         -0.0959835              -2.6118
       ...                                ...                  ...
       144                          0.6813185              18.5396
      -------------------------------------------------------------
                  HL-Gap            0.1134857 Eh            3.0881 eV
             Fermi-level           -0.2862416 Eh           -7.7890 eV

 SCC (total)                   0 d,  0 h,  0 min,  0.043 sec
 SCC setup                      ...        0 min,  0.000 sec (  0.531%)
 Dispersion                     ...        0 min,  0.000 sec (  0.869%)
 classical contributions        ...        0 min,  0.000 sec (  0.399%)
 integral evaluation            ...        0 min,  0.006 sec ( 13.915%)
 iterations                     ...        0 min,  0.008 sec ( 19.485%)
 molecular gradient             ...        0 min,  0.028 sec ( 63.929%)
 printout                       ...        0 min,  0.000 sec (  0.860%)

         :::::::::::::::::::::::::::::::::::::::::::::::::::::
         ::                     SUMMARY                     ::
         :::::::::::::::::::::::::::::::::::::::::::::::::::::
         :: total energy             -82.304927475058 Eh    ::
         :: gradient norm              0.000897554510 Eh/a0 ::
         :: HOMO-LUMO gap              3.088102415470 eV    ::
         ::.................................................::
         :: SCC energy               -83.383635897639 Eh    ::
         :: -> isotropic ES            0.148252117502 Eh    ::
         :: -> anisotropic ES          0.011557045896 Eh    ::
         :: -> anisotropic XC          0.026965102504 Eh    ::
         :: -> dispersion             -0.061837141315 Eh    ::
         :: repulsion energy           1.077852880971 Eh    ::
         :: add. restraining           0.000177658847 Eh    ::
         :: total charge               0.000000000000 e     ::
         :::::::::::::::::::::::::::::::::::::::::::::::::::::

           -------------------------------------------------
          |                Property Printout                |
           -------------------------------------------------

    * Orbital Energies and Occupations

         #    Occupation            Energy/Eh            Energy/eV
      -------------------------------------------------------------
         1        2.0000           -0.6905896             -18.7919
       ...           ...                  ...                  ...
        63        2.0000           -0.4338288             -11.8051
        64        2.0000           -0.4331237             -11.7859
        65        2.0000           -0.4260357             -11.5930
        66        2.0000           -0.4224990             -11.4968
        67        2.0000           -0.4188428             -11.3973
        68        2.0000           -0.4157288             -11.3126
        69        2.0000           -0.4029130             -10.9638
        70        2.0000           -0.3993010             -10.8655
        71        2.0000           -0.3968315             -10.7983
        72        2.0000           -0.3946938             -10.7402
        73        2.0000           -0.3880490             -10.5594
        74        2.0000           -0.3550698              -9.6619
        75        2.0000           -0.3429844              -9.3331 (HOMO)
        76                         -0.2294987              -6.2450 (LUMO)
        77                         -0.2108124              -5.7365
        78                         -0.1843995              -5.0178
        79                         -0.1403843              -3.8201
        80                         -0.0959835              -2.6118
        81                         -0.0518616              -1.4112
        82                          0.0072104               0.1962
        83                          0.0104438               0.2842
        84                          0.0264160               0.7188
        85                          0.0299302               0.8144
        86                          0.0548108               1.4915
       ...                                ...                  ...
       144                          0.6813185              18.5396
      -------------------------------------------------------------
                  HL-Gap            0.1134857 Eh            3.0881 eV
             Fermi-level           -0.2862416 Eh           -7.7890 eV

     #   Z          covCN         q      C6AA      α(0)
     1   6 C        3.755    -0.117    22.794     6.808
     2   6 C        3.859     0.130    18.439     6.107
     3   8 O        1.638    -0.380    20.471     6.107
     4   6 C        3.755    -0.116    22.781     6.806
     5   6 C        3.860     0.130    18.444     6.108
     6   6 C        3.755    -0.118    22.807     6.809
     7   6 C        3.755    -0.116    22.770     6.804
     8   8 O        1.638    -0.373    20.344     6.088
     9   5 B        2.658     0.436    15.516     6.633
    10   6 C        3.664    -0.068    22.092     6.742
    11   6 C        2.890    -0.044    29.086     8.842
    12   6 C        2.958    -0.035    28.874     8.814
    13   1 H        0.925     0.024     2.670     2.555
    14   6 C        3.865    -0.015    20.801     6.486
    15   1 H        0.924     0.044     2.402     2.424
    16   6 C        2.865    -0.082    30.034     8.983
    17   5 B        2.662     0.432    15.557     6.639
    18   8 O        1.638    -0.370    20.287     6.080
    19   6 C        3.860     0.129    18.456     6.110
    20   6 C        3.755    -0.117    22.796     6.808
    21   6 C        3.755    -0.116    22.776     6.805
    22   6 C        3.859     0.129    18.453     6.109
    23   6 C        3.755    -0.116    22.781     6.806
    24   6 C        3.755    -0.117    22.803     6.809
    25   8 O        1.638    -0.372    20.328     6.086
    26   6 C        2.896    -0.028    28.708     8.785
    27   6 C        3.861    -0.006    20.643     6.461
    28   1 H        0.925     0.045     2.378     2.411
    29   6 C        3.692    -0.014    21.013     6.559
    30   6 C        2.889    -0.041    29.020     8.832
    31   6 C        2.959    -0.031    28.770     8.798
    32   1 H        0.925     0.026     2.650     2.546
    33   1 H        0.925     0.054     2.266     2.354
    34   1 H        0.925     0.040     2.451     2.448
    35   1 H        0.925     0.051     2.303     2.373
    36   1 H        0.925     0.052     2.296     2.369
    37   1 H        0.925     0.044     2.399     2.422
    38   1 H        0.925     0.043     2.413     2.429
    39   1 H        0.925     0.040     2.447     2.446
    40   1 H        0.925     0.053     2.288     2.366
    41   1 H        0.925     0.055     2.260     2.351
    42   1 H        0.925     0.043     2.411     2.428
    43   1 H        0.925     0.053     2.288     2.365
    44   1 H        0.925     0.043     2.411     2.428
    45   1 H        0.925     0.033     2.544     2.494
    46   1 H        0.925     0.054     2.268     2.355
    47   1 H        0.925     0.039     2.456     2.451
    48   1 H        0.925     0.052     2.296     2.370
    49   1 H        0.925     0.052     2.294     2.368
    50   1 H        0.925     0.044     2.401     2.423
    51   1 H        0.925     0.042     2.421     2.433
    52   1 H        0.925     0.042     2.416     2.431
    53   1 H        0.925     0.052     2.294     2.369
    54   1 H        0.925     0.044     2.401     2.423
    55   1 H        0.925     0.040     2.453     2.449
    56   1 H        0.925     0.052     2.296     2.369
    57   1 H        0.925     0.054     2.269     2.356
    58   1 H        0.925     0.038     2.480     2.462
    59   1 H        0.926     0.037     2.494     2.470
    60   1 H        0.925     0.024     2.675     2.558

 Mol. C6AA /au·bohr⁶  :      32820.081762
 Mol. C8AA /au·bohr⁸  :     759927.539826
 Mol. α(0) /au        :        273.319332


Wiberg/Mayer (AO) data.
largest (>0.10) Wiberg bond orders for each atom

 ---------------------------------------------------------------------------
     #   Z sym  total        # sym  WBO       # sym  WBO       # sym  WBO
 ---------------------------------------------------------------------------
     1   6 C    3.994 --     2 C    0.997    34 H    0.984    33 H    0.983
                            35 H    0.982
     2   6 C    3.943 --     1 C    0.997     4 C    0.991     3 O    0.952
                             5 C    0.937
     3   8 O    2.219 --     9 B    1.117     2 C    0.952
     4   6 C    3.994 --     2 C    0.991    38 H    0.984    37 H    0.984
                            36 H    0.983
     5   6 C    3.942 --     6 C    0.997     7 C    0.991     8 O    0.951
                             2 C    0.937
     6   6 C    3.994 --     5 C    0.997    39 H    0.984    41 H    0.982
                            40 H    0.982
     7   6 C    3.995 --     5 C    0.991    42 H    0.984    44 H    0.984
                            43 H    0.983
     8   8 O    2.228 --     9 B    1.127     5 C    0.951
     9   5 B    3.384 --     8 O    1.127     3 O    1.117    10 C    1.016
    10   6 C    3.918 --    11 C    1.175     9 B    1.016    27 C    0.898
                            29 C    0.614
    11   6 C    3.990 --    12 C    1.754    10 C    1.175    45 H    0.962
    12   6 C    3.983 --    11 C    1.754    14 C    0.974    13 H    0.970
                            31 C    0.106
    13   1 H    0.999 --    12 C    0.970
    14   6 C    3.994 --    16 C    0.985    31 C    0.981    12 C    0.974
                            15 H    0.971
    15   1 H    0.998 --    14 C    0.971
    16   6 C    3.976 --    26 C    1.831    17 B    1.000    14 C    0.985
    17   5 B    3.375 --    18 O    1.130    25 O    1.128    16 C    1.000
    18   8 O    2.235 --    17 B    1.130    19 C    0.953
    19   6 C    3.943 --    20 C    0.997    21 C    0.991    18 O    0.953
                            22 C    0.937
    20   6 C    3.994 --    19 C    0.997    47 H    0.984    46 H    0.983
                            48 H    0.982
    21   6 C    3.994 --    19 C    0.991    51 H    0.984    50 H    0.984
                            49 H    0.983
    22   6 C    3.943 --    24 C    0.996    23 C    0.990    25 O    0.954
                            19 C    0.937
    23   6 C    3.995 --    22 C    0.990    52 H    0.984    54 H    0.984
                            53 H    0.983
    24   6 C    3.994 --    22 C    0.996    55 H    0.985    57 H    0.983
                            56 H    0.982
    25   8 O    2.233 --    17 B    1.128    22 C    0.954
    26   6 C    3.988 --    16 C    1.831    27 C    1.046    58 H    0.965
    27   6 C    3.976 --    26 C    1.046    28 H    0.968    29 C    0.952
                            10 C    0.898
    28   1 H    0.998 --    27 C    0.968
    29   6 C    3.939 --    30 C    1.202    59 H    0.974    27 C    0.952
                            10 C    0.614
    30   6 C    3.990 --    31 C    1.732    29 C    1.202    60 H    0.964
    31   6 C    3.976 --    30 C    1.732    14 C    0.981    32 H    0.971
                            12 C    0.106
    32   1 H    0.999 --    31 C    0.971
    33   1 H    0.997 --     1 C    0.983
    34   1 H    0.998 --     1 C    0.984
    35   1 H    0.997 --     1 C    0.982
    36   1 H    0.997 --     4 C    0.983
    37   1 H    0.998 --     4 C    0.984
    38   1 H    0.998 --     4 C    0.984
    39   1 H    0.998 --     6 C    0.984
    40   1 H    0.997 --     6 C    0.982
    41   1 H    0.997 --     6 C    0.982
    42   1 H    0.998 --     7 C    0.984
    43   1 H    0.997 --     7 C    0.983
    44   1 H    0.998 --     7 C    0.984
    45   1 H    0.999 --    11 C    0.962
    46   1 H    0.997 --    20 C    0.983
    47   1 H    0.998 --    20 C    0.984
    48   1 H    0.997 --    20 C    0.982
    49   1 H    0.997 --    21 C    0.983
    50   1 H    0.998 --    21 C    0.984
    51   1 H    0.998 --    21 C    0.984
    52   1 H    0.998 --    23 C    0.984
    53   1 H    0.997 --    23 C    0.983
    54   1 H    0.998 --    23 C    0.984
    55   1 H    0.998 --    24 C    0.985
    56   1 H    0.997 --    24 C    0.982
    57   1 H    0.997 --    24 C    0.983
    58   1 H    0.998 --    26 C    0.965
    59   1 H    0.998 --    29 C    0.974
    60   1 H    0.999 --    30 C    0.964
 ---------------------------------------------------------------------------

Topologies differ in total number of bonds
Writing topology from bond orders to xtbtopo.mol

molecular dipole:
                 x           y           z       tot (Debye)
 q only:       -0.327      -0.456      -0.063
   full:       -0.268      -0.540      -0.164       1.589
molecular quadrupole (traceless):
                xx          xy          yy          xz          yz          zz
 q only:      -41.862      26.181      59.098     -33.494     -12.197     -17.236
  q+dip:      -43.925      21.007      71.837     -31.055      -5.063     -27.912
   full:      -44.211      20.031      73.454     -32.252      -6.489     -29.243

           -------------------------------------------------
          |                Geometry Summary                 |
           -------------------------------------------------

      molecular mass/u    :      382.1099696
   center of mass at/Å    :        2.9486786     -35.9379802      21.8353324
  moments of inertia/u·Å² :        0.1179729E+04   0.6843640E+04   0.7129075E+04
rotational constants/cm⁻¹ :        0.1428941E-01   0.2463255E-02   0.2364631E-02

 * 58 selected distances

     #   Z          #   Z                                           value/Å
     1   6 C        2   6 C                                       1.5267750
     2   6 C        3   8 O                                       1.4275410
     2   6 C        4   6 C                                       1.5341431
     5   6 C        6   6 C                                       1.5268307
     5   6 C        7   6 C                                       1.5338003
     5   6 C        8   8 O                                       1.4281031
     3   8 O        9   5 B                                       1.3706590
     8   8 O        9   5 B                                       1.3671089
     9   5 B       10   6 C                                       1.5524657
    10   6 C       11   6 C                                       1.4376602
    11   6 C       12   6 C                                       1.3420152
    12   6 C       13   1 H                                       1.0821595
    14   6 C       15   1 H                                       1.0912350
    16   6 C       17   5 B                                       1.5598306 (max)
    17   5 B       18   8 O                                       1.3677196
    18   8 O       19   6 C                                       1.4272069
    19   6 C       20   6 C                                       1.5268802
    19   6 C       21   6 C                                       1.5341618
    22   6 C       23   6 C                                       1.5340852
    22   6 C       24   6 C                                       1.5271831
    17   5 B       25   8 O                                       1.3677318
    22   6 C       25   8 O                                       1.4266202
    16   6 C       26   6 C                                       1.3351570
    10   6 C       27   6 C                                       1.5238114
    26   6 C       27   6 C                                       1.4726416
    27   6 C       28   1 H                                       1.0868704
    27   6 C       29   6 C                                       1.4957776
    29   6 C       30   6 C                                       1.4257009
    30   6 C       31   6 C                                       1.3442407
    31   6 C       32   1 H                                       1.0821832
     1   6 C       33   1 H                                       1.0872895
     1   6 C       34   1 H                                       1.0865310
     1   6 C       35   1 H                                       1.0852043
     4   6 C       36   1 H                                       1.0876742
     4   6 C       37   1 H                                       1.0871540
     4   6 C       38   1 H                                       1.0859003
     6   6 C       39   1 H                                       1.0867113
     6   6 C       40   1 H                                       1.0851215
     6   6 C       41   1 H                                       1.0871412
     7   6 C       42   1 H                                       1.0857812
     7   6 C       43   1 H                                       1.0875527
     7   6 C       44   1 H                                       1.0872510
    11   6 C       45   1 H                                       1.0835288
    20   6 C       46   1 H                                       1.0871959
    20   6 C       47   1 H                                       1.0867635
    20   6 C       48   1 H                                       1.0851338
    21   6 C       49   1 H                                       1.0876074
    21   6 C       50   1 H                                       1.0871521
    21   6 C       51   1 H                                       1.0858990
    23   6 C       52   1 H                                       1.0858908
    23   6 C       53   1 H                                       1.0875905
    23   6 C       54   1 H                                       1.0870474
    24   6 C       55   1 H                                       1.0866452
    24   6 C       56   1 H                                       1.0850741
    24   6 C       57   1 H                                       1.0871536
    26   6 C       58   1 H                                       1.0821770
    29   6 C       59   1 H                                       1.0787235 (min)
    30   6 C       60   1 H                                       1.0841805

 * 5 distinct bonds (by element types)

   Z      Z             #   av. dist./Å        max./Å        min./Å
   1 H    6 C          32     1.0859226     1.0912350     1.0787235
   5 B    6 C           2     1.5561482     1.5598306     1.5524657
   6 C    6 C          16     1.4763040     1.5341618     1.3351570
   5 B    8 O           4     1.3683048     1.3706590     1.3671089
   6 C    8 O           4     1.4273678     1.4281031     1.4266202


optimized geometry written to: xtbopt.xyz


           -------------------------------------------------
          | TOTAL ENERGY              -82.304927475058 Eh   |
          | GRADIENT NORM               0.000897554510 Eh/α |
          | HOMO-LUMO GAP               3.088102415470 eV   |
           -------------------------------------------------

------------------------------------------------------------------------
 * finished run on 2022/07/09 at 18:33:36.789     
------------------------------------------------------------------------
 total:
 * wall-time:     0 d,  0 h,  0 min,  1.158 sec
 *  cpu-time:     0 d,  0 h,  0 min,  1.155 sec
 * ratio c/w:     0.998 speedup
 SCF:
 * wall-time:     0 d,  0 h,  0 min,  0.071 sec
 *  cpu-time:     0 d,  0 h,  0 min,  0.071 sec
 * ratio c/w:     0.999 speedup
 ANC optimizer:
 * wall-time:     0 d,  0 h,  0 min,  1.074 sec
 *  cpu-time:     0 d,  0 h,  0 min,  1.071 sec
 * ratio c/w:     0.997 speedup

