      -----------------------------------------------------------      
     |                   =====================                   |     
     |                           x T B                           |     
     |                   =====================                   |     
     |                         S. Grimme                         |     
     |          Mulliken Center for Theoretical Chemistry        |     
     |                    University of Bonn                     |     
      -----------------------------------------------------------      

   * xtb version 6.5.0 (homebrew) compiled by 'nhattrup@GPGGRP-SHANNON.CHEME.CMU.EDU' on 

   xtb is free software: you can redistribute it and/or modify it under
   the terms of the GNU Lesser General Public License as published by
   the Free Software Foundation, either version 3 of the License, or
   (at your option) any later version.
   
   xtb is distributed in the hope that it will be useful,
   but WITHOUT ANY WARRANTY; without even the implied warranty of
   MERCHANTABILITY or FITNESS FOR A PARTICULAR PURPOSE.  See the
   GNU Lesser General Public License for more details.
   
   Cite this work as:
   * C. Bannwarth, E. Caldeweyher, S. Ehlert, A. Hansen, P. Pracht,
     J. Seibert, S. Spicher, S. Grimme, WIREs Comput. Mol. Sci., 2020, 11,
     e01493. DOI: 10.1002/wcms.1493
   
   for GFN2-xTB:
   * C. Bannwarth, S. Ehlert and S. Grimme., J. Chem. Theory Comput., 2019,
     15, 1652-1671. DOI: 10.1021/acs.jctc.8b01176
   for GFN1-xTB:
   * S. Grimme, C. Bannwarth, P. Shushkov, J. Chem. Theory Comput., 2017,
     13, 1989-2009. DOI: 10.1021/acs.jctc.7b00118
   for GFN0-xTB:
   * P. Pracht, E. Caldeweyher, S. Ehlert, S. Grimme, ChemRxiv, 2019, preprint.
     DOI: 10.26434/chemrxiv.8326202.v1
   for GFN-FF:
   * S. Spicher and S. Grimme, Angew. Chem. Int. Ed., 2020, 59, 15665-15673.
     DOI: 10.1002/anie.202004239
   
   for ALPB and GBSA implicit solvation:
   * S. Ehlert, M. Stahn, S. Spicher, S. Grimme, J. Chem. Theory Comput.,
     2021, 17, 4250-4261. DOI: 10.1021/acs.jctc.1c00471
   
   for DFT-D4:
   * E. Caldeweyher, C. Bannwarth and S. Grimme, J. Chem. Phys., 2017,
     147, 034112. DOI: 10.1063/1.4993215
   * E. Caldeweyher, S. Ehlert, A. Hansen, H. Neugebauer, S. Spicher,
     C. Bannwarth and S. Grimme, J. Chem. Phys., 2019, 150, 154122.
     DOI: 10.1063/1.5090222
   * E. Caldeweyher, J.-M. Mewes, S. Ehlert and S. Grimme, Phys. Chem. Chem. Phys.
     2020, 22, 8499-8512. DOI: 10.1039/D0CP00502A
   
   for sTDA-xTB:
   * S. Grimme and C. Bannwarth, J. Chem. Phys., 2016, 145, 054103.
     DOI: 10.1063/1.4959605
   
   in the mass-spec context:
   * V. Asgeirsson, C. Bauer and S. Grimme, Chem. Sci., 2017, 8, 4879.
     DOI: 10.1039/c7sc00601b
   * J. Koopman and S. Grimme, ACS Omega 2019, 4, 12, 15120-15133.
     DOI: 10.1021/acsomega.9b02011
   
   for metadynamics refer to:
   * S. Grimme, J. Chem. Theory Comput., 2019, 155, 2847-2862
     DOI: 10.1021/acs.jctc.9b00143
   
   for SPH calculations refer to:
   * S. Spicher and S. Grimme, J. Chem. Theory Comput., 2021, 17, 1701-1714
     DOI: 10.1021/acs.jctc.0c01306
   
   with help from (in alphabetical order)
   P. Atkinson, C. Bannwarth, F. Bohle, G. Brandenburg, E. Caldeweyher
   M. Checinski, S. Dohm, S. Ehlert, S. Ehrlich, I. Gerasimov, C. Hölzer
   A. Katbashev, J. Koopman, C. Lavigne, S. Lehtola, F. März, M. Müller,
   F. Musil, H. Neugebauer, J. Pisarek, C. Plett, P. Pracht, F. Pultar,
   J. Seibert, P. Shushkov, S. Spicher, M. Stahn, M. Steiner, T. Strunk,
   J. Stückrath, T. Rose, and J. Unsleber
   
 * started run on 2022/07/09 at 18:33:26.868     

           -------------------------------------------------
          |                Calculation Setup                |
           -------------------------------------------------

          program call               : /opt/homebrew/bin/xtb bvl_bpin2_scan_2-8_xtb.xyz --chrg 0 --uhf 0 --opt --input xcontrol_bvl_bpin2_scan_2-8_xtb
          coordinate file            : bvl_bpin2_scan_2-8_xtb.xyz
          omp threads                :                     1

   ID    Z sym.   atoms
    1    6 C      1, 2, 4-7, 10-12, 14, 16, 19-24, 26, 27, 29-31
    2    8 O      3, 8, 18, 25
    3    5 B      9, 17
    4    1 H      13, 15, 28, 32-60
constraining bond 12 31 to    1.7222000 Å, actual value:    1.6130758 Å
constraining bond 10 29 to    1.6111000 Å, actual value:    1.7243787 Å

           -------------------------------------------------
          |                 G F N 2 - x T B                 |
           -------------------------------------------------

        Reference                      10.1021/acs.jctc.8b01176
      * Hamiltonian:
        H0-scaling (s, p, d)           1.850000    2.230000    2.230000
        zeta-weighting                 0.500000
      * Dispersion:
        s8                             2.700000
        a1                             0.520000
        a2                             5.000000
        s9                             5.000000
      * Repulsion:
        kExp                           1.500000    1.000000
        rExp                           1.000000
      * Coulomb:
        alpha                          2.000000
        third order                    shell-resolved
        anisotropic                    true
        a3                             3.000000
        a5                             4.000000
        cn-shift                       1.200000
        cn-exp                         4.000000
        max-rad                        5.000000


          ...................................................
          :                      SETUP                      :
          :.................................................:
          :  # basis functions                 144          :
          :  # atomic orbitals                 144          :
          :  # shells                           88          :
          :  # electrons                       150          :
          :  max. iterations                   250          :
          :  Hamiltonian                  GFN2-xTB          :
          :  restarted?                      false          :
          :  GBSA solvation                  false          :
          :  PC potential                    false          :
          :  electronic temp.          300.0000000     K    :
          :  accuracy                    1.0000000          :
          :  -> integral cutoff          0.2500000E+02      :
          :  -> integral neglect         0.1000000E-07      :
          :  -> SCF convergence          0.1000000E-05 Eh   :
          :  -> wf. convergence          0.1000000E-03 e    :
          :  Broyden damping             0.4000000          :
          ...................................................

 iter      E             dE          RMSdq      gap      omega  full diag
   1    -82.9323310 -0.829323E+02  0.462E+00    2.64       0.0  T
   2    -83.3212093 -0.388878E+00  0.285E+00    2.23       1.0  T
   3    -83.3343599 -0.131506E-01  0.136E+00    2.53       1.0  T
   4    -83.3509816 -0.166217E-01  0.507E-01    2.44       1.0  T
   5    -83.3661414 -0.151598E-01  0.242E-01    2.44       1.0  T
   6    -83.3685975 -0.245617E-02  0.115E-01    2.47       1.0  T
   7    -83.3687594 -0.161820E-03  0.305E-02    2.46       1.0  T
   8    -83.3687834 -0.240785E-04  0.902E-03    2.46       1.4  T
   9    -83.3687849 -0.150860E-05  0.422E-03    2.46       3.1  T
  10    -83.3687852 -0.239312E-06  0.239E-03    2.46       5.4  T
  11    -83.3687853 -0.111060E-06  0.779E-04    2.46      16.6  T
  12    -83.3687853 -0.309420E-07  0.298E-04    2.46      43.3  T

   *** convergence criteria satisfied after 12 iterations ***

         #    Occupation            Energy/Eh            Energy/eV
      -------------------------------------------------------------
         1        2.0000           -0.6928764             -18.8541
       ...           ...                  ...                  ...
        69        2.0000           -0.4083343             -11.1113
        70        2.0000           -0.4012999             -10.9199
        71        2.0000           -0.3990905             -10.8598
        72        2.0000           -0.3954907             -10.7619
        73        2.0000           -0.3776252             -10.2757
        74        2.0000           -0.3765908             -10.2476
        75        2.0000           -0.3152506              -8.5784 (HOMO)
        76                         -0.2247843              -6.1167 (LUMO)
        77                         -0.2191455              -5.9633
        78                         -0.1543541              -4.2002
        79                         -0.1024952              -2.7890
        80                         -0.0543801              -1.4798
       ...                                ...                  ...
       144                          0.6977534              18.9868
      -------------------------------------------------------------
                  HL-Gap            0.0904662 Eh            2.4617 eV
             Fermi-level           -0.2700174 Eh           -7.3475 eV

 SCC (total)                   0 d,  0 h,  0 min,  0.068 sec
 SCC setup                      ...        0 min,  0.000 sec (  0.372%)
 Dispersion                     ...        0 min,  0.000 sec (  0.604%)
 classical contributions        ...        0 min,  0.000 sec (  0.272%)
 integral evaluation            ...        0 min,  0.006 sec (  8.995%)
 iterations                     ...        0 min,  0.032 sec ( 48.016%)
 molecular gradient             ...        0 min,  0.028 sec ( 41.189%)
 printout                       ...        0 min,  0.000 sec (  0.543%)

         :::::::::::::::::::::::::::::::::::::::::::::::::::::
         ::                     SUMMARY                     ::
         :::::::::::::::::::::::::::::::::::::::::::::::::::::
         :: total energy             -82.119464651230 Eh    ::
         :: gradient norm              1.679852825899 Eh/a0 ::
         :: HOMO-LUMO gap              2.461711744929 eV    ::
         ::.................................................::
         :: SCC energy               -83.368785327068 Eh    ::
         :: -> isotropic ES            0.148379772949 Eh    ::
         :: -> anisotropic ES          0.010851942055 Eh    ::
         :: -> anisotropic XC          0.025563037708 Eh    ::
         :: -> dispersion             -0.060910076074 Eh    ::
         :: repulsion energy           1.071977631534 Eh    ::
         :: add. restraining           0.176697364364 Eh    ::
         :: total charge               0.000000000000 e     ::
         :::::::::::::::::::::::::::::::::::::::::::::::::::::

      ----------------------------------------------------------- 
     |                   =====================                   |
     |                        A N C O P T                        |
     |                   =====================                   |
     |               Approximate Normal Coordinate               |
     |                Rational Function Optimizer                |
      ----------------------------------------------------------- 

          ...................................................
          :                      SETUP                      :
          :.................................................:
          :   optimization level            normal          :
          :   max. optcycles                   200          :
          :   ANC micro-cycles                  20          :
          :   degrees of freedom               174          :
          :.................................................:
          :   RF solver                   davidson          :
          :   write xtbopt.log                true          :
          :   linear?                        false          :
          :   energy convergence         0.5000000E-05 Eh   :
          :   grad. convergence          0.1000000E-02 Eh/α :
          :   maximium RF displ.         1.0000000          :
          :   Hlow (freq-cutoff)         0.1000000E-01      :
          :   Hmax (freq-cutoff)         5.0000000          :
          :   S6 in model hess.         20.0000000          :
          ...................................................

generating ANC from model Hessian ...
Using Lindh-Hessian (1995)
 Shifting diagonal of input Hessian by   0.19624551645896904     
 Lowest  eigenvalues of input Hessian
    0.010000    0.129720    0.000000    0.000000    0.000000    0.000000
    0.000000    0.000000    0.196363    0.196390    0.196536    0.197920
    0.198143    0.199063    0.199543    0.199608    0.201019    0.201423
 Highest eigenvalues
    1.919438    1.949611    2.129009    2.201790    9.136896    9.343608


........................................................................
.............................. CYCLE    1 ..............................
........................................................................
   1    -83.3687853 -0.833688E+02  0.152E-04    2.46       0.0  T
   2    -83.3687853 -0.129701E-08  0.918E-05    2.46     140.6  T
   3    -83.3687853 -0.416989E-09  0.399E-05    2.46     323.7  T
     SCC iter.                  ...        0 min,  0.009 sec
     gradient                   ...        0 min,  0.028 sec
 * total energy  :   -82.1194647 Eh     change       -0.1085183E-08 Eh
   gradient norm :     1.6798535 Eh/α   predicted     0.0000000E+00 (-100.00%)
   displ. norm   :     0.3102198 α      lambda       -0.5159488E+00
   maximum displ.:     0.2411661 α      in ANC's #174, #173, #170, ...

........................................................................
.............................. CYCLE    2 ..............................
........................................................................
   1    -83.3649010 -0.833649E+02  0.426E-01    2.53       0.0  T
   2    -83.3650691 -0.168045E-03  0.278E-01    2.52       1.0  T
   3    -83.3633330  0.173610E-02  0.168E-01    2.51       1.0  T
   4    -83.3652767 -0.194377E-02  0.294E-02    2.51       1.0  T
   5    -83.3653285 -0.517286E-04  0.783E-03    2.51       1.6  T
   6    -83.3653297 -0.121533E-05  0.479E-03    2.51       2.7  T
   7    -83.3653303 -0.568177E-06  0.195E-03    2.51       6.6  T
   8    -83.3653304 -0.112382E-06  0.490E-04    2.51      26.4  T
   9    -83.3653304 -0.531163E-08  0.158E-04    2.51      81.8  T
     SCC iter.                  ...        0 min,  0.024 sec
     gradient                   ...        0 min,  0.028 sec
 * total energy  :   -82.2510945 Eh     change       -0.1316298E+00 Eh
   gradient norm :     0.8355088 Eh/α   predicted    -0.2828008E+00 ( 114.85%)
   displ. norm   :     0.1055501 α      lambda       -0.8480404E-01
   maximum displ.:     0.0798381 α      in ANC's #174, #173, #170, ...

........................................................................
.............................. CYCLE    3 ..............................
........................................................................
   1    -83.3663454 -0.833663E+02  0.131E-01    2.48       0.0  T
   2    -83.3664264 -0.810270E-04  0.954E-02    2.48       1.0  T
   3    -83.3663518  0.745982E-04  0.491E-02    2.49       1.0  T
   4    -83.3664707 -0.118871E-03  0.176E-02    2.49       1.0  T
   5    -83.3664887 -0.179653E-04  0.293E-03    2.48       4.4  T
   6    -83.3664889 -0.213193E-06  0.189E-03    2.48       6.8  T
   7    -83.3664890 -0.986519E-07  0.917E-04    2.49      14.1  T
   8    -83.3664890 -0.249484E-07  0.174E-04    2.48      74.3  T
     SCC iter.                  ...        0 min,  0.022 sec
     gradient                   ...        0 min,  0.028 sec
 * total energy  :   -82.2944294 Eh     change       -0.4333486E-01 Eh
   gradient norm :     0.0354845 Eh/α   predicted    -0.4287440E-01 (  -1.06%)
   displ. norm   :     0.0360152 α      lambda       -0.9168317E-03
   maximum displ.:     0.0112054 α      in ANC's #39, #109, #1, ...

........................................................................
.............................. CYCLE    4 ..............................
........................................................................
   1    -83.3665052 -0.833665E+02  0.267E-02    2.48       0.0  T
   2    -83.3665146 -0.940256E-05  0.173E-02    2.48       1.0  T
   3    -83.3665167 -0.211381E-05  0.985E-03    2.48       1.3  T
   4    -83.3665176 -0.892079E-06  0.476E-03    2.48       2.7  T
   5    -83.3665188 -0.119841E-05  0.880E-04    2.48      14.7  T
   6    -83.3665188 -0.418108E-07  0.342E-04    2.48      37.7  T
   7    -83.3665188 -0.229058E-08  0.200E-04    2.48      64.4  T
     SCC iter.                  ...        0 min,  0.019 sec
     gradient                   ...        0 min,  0.028 sec
 * total energy  :   -82.2951203 Eh     change       -0.6909612E-03 Eh
   gradient norm :     0.0205871 Eh/α   predicted    -0.4593174E-03 ( -33.52%)
   displ. norm   :     0.2125687 α      lambda       -0.1333713E-02
   maximum displ.:     0.1972976 α      in ANC's #1, #39, #37, ...

........................................................................
.............................. CYCLE    5 ..............................
........................................................................
   1    -83.3633152 -0.833633E+02  0.134E-01    2.50       0.0  T
   2    -83.3633260 -0.107822E-04  0.839E-02    2.51       1.0  T
   3    -83.3632072  0.118818E-03  0.682E-02    2.51       1.0  T
   4    -83.3633996 -0.192387E-03  0.141E-02    2.51       1.0  T
   5    -83.3634140 -0.144372E-04  0.186E-03    2.51       6.9  T
   6    -83.3634141 -0.100117E-06  0.112E-03    2.51      11.5  T
   7    -83.3634141 -0.175705E-07  0.553E-04    2.51      23.3  T
   8    -83.3634141 -0.926502E-08  0.152E-04    2.51      84.9  T
     SCC iter.                  ...        0 min,  0.022 sec
     gradient                   ...        0 min,  0.028 sec
 * total energy  :   -82.2930704 Eh     change        0.2049873E-02 Eh
   gradient norm :     0.0551674 Eh/α   predicted    -0.6972444E-03 (-134.01%)
   displ. norm   :     0.2232705 α      lambda       -0.5737686E-02
   maximum displ.:     0.2198782 α      in ANC's #1, #39, #37, ...

........................................................................
.............................. CYCLE    6 ..............................
........................................................................
   1    -83.3666584 -0.833667E+02  0.139E-01    2.50       0.0  T
   2    -83.3666423  0.161878E-04  0.880E-02    2.49       1.0  T
   3    -83.3665027  0.139579E-03  0.728E-02    2.50       1.0  T
   4    -83.3667325 -0.229876E-03  0.103E-02    2.50       1.3  T
   5    -83.3667400 -0.741231E-05  0.152E-03    2.49       8.5  T
   6    -83.3667400 -0.203293E-07  0.888E-04    2.50      14.5  T
   7    -83.3667400 -0.117064E-07  0.331E-04    2.50      39.0  T
     SCC iter.                  ...        0 min,  0.019 sec
     gradient                   ...        0 min,  0.028 sec
 * total energy  :   -82.2951645 Eh     change       -0.2094100E-02 Eh
   gradient norm :     0.0348069 Eh/α   predicted    -0.3011884E-02 (  43.83%)
   displ. norm   :     0.0851193 α      lambda       -0.1418990E-02
   maximum displ.:     0.0272497 α      in ANC's #1, #39, #109, ...

........................................................................
.............................. CYCLE    7 ..............................
........................................................................
   1    -83.3667700 -0.833668E+02  0.652E-02    2.49       0.0  T
   2    -83.3668162 -0.462140E-04  0.407E-02    2.48       1.0  T
   3    -83.3668208 -0.458540E-05  0.237E-02    2.48       1.0  T
   4    -83.3668293 -0.851644E-05  0.113E-02    2.48       1.1  T
   5    -83.3668363 -0.701049E-05  0.200E-03    2.48       6.4  T
   6    -83.3668365 -0.217599E-06  0.779E-04    2.48      16.6  T
   7    -83.3668365 -0.103181E-07  0.459E-04    2.48      28.1  T
     SCC iter.                  ...        0 min,  0.019 sec
     gradient                   ...        0 min,  0.028 sec
 * total energy  :   -82.2953451 Eh     change       -0.1805998E-03 Eh
   gradient norm :     0.0372949 Eh/α   predicted    -0.7199800E-03 ( 298.66%)
   displ. norm   :     0.0421624 α      lambda       -0.5347653E-03
   maximum displ.:     0.0174564 α      in ANC's #39, #37, #109, ...

........................................................................
.............................. CYCLE    8 ..............................
........................................................................
   1    -83.3670412 -0.833670E+02  0.284E-02    2.49       0.0  T
   2    -83.3670491 -0.783692E-05  0.174E-02    2.49       1.0  T
   3    -83.3670495 -0.461745E-06  0.968E-03    2.49       1.3  T
   4    -83.3670517 -0.213612E-05  0.299E-03    2.49       4.3  T
   5    -83.3670521 -0.466309E-06  0.752E-04    2.49      17.2  T
   6    -83.3670521 -0.262549E-07  0.288E-04    2.49      44.8  T
     SCC iter.                  ...        0 min,  0.017 sec
     gradient                   ...        0 min,  0.028 sec
 * total energy  :   -82.2956263 Eh     change       -0.2811358E-03 Eh
   gradient norm :     0.0046991 Eh/α   predicted    -0.2679929E-03 (  -4.67%)
   displ. norm   :     0.0121870 α      lambda       -0.2523867E-04
   maximum displ.:     0.0069707 α      in ANC's #39, #37, #40, ...

........................................................................
.............................. CYCLE    9 ..............................
........................................................................
   1    -83.3671691 -0.833672E+02  0.564E-03    2.49       0.0  T
   2    -83.3671691 -0.967096E-08  0.332E-03    2.49       3.9  T
   3    -83.3671691  0.274118E-07  0.778E-04    2.49      16.6  T
   4    -83.3671691 -0.307316E-07  0.180E-04    2.49      71.7  T
     SCC iter.                  ...        0 min,  0.011 sec
     gradient                   ...        0 min,  0.028 sec
 * total energy  :   -82.2956486 Eh     change       -0.2237093E-04 Eh
   gradient norm :     0.0029103 Eh/α   predicted    -0.1273470E-04 ( -43.07%)
   displ. norm   :     0.0500143 α      lambda       -0.8916929E-04
   maximum displ.:     0.0284706 α      in ANC's #39, #37, #40, ...

........................................................................
.............................. CYCLE   10 ..............................
........................................................................
   1    -83.3676698 -0.833677E+02  0.238E-02    2.49       0.0  T
   2    -83.3676702 -0.374828E-06  0.141E-02    2.49       1.0  T
   3    -83.3676694  0.828620E-06  0.386E-03    2.49       3.3  T
   4    -83.3676702 -0.873982E-06  0.125E-03    2.49      10.3  T
   5    -83.3676703 -0.893477E-07  0.375E-04    2.49      34.4  T
   6    -83.3676703 -0.275254E-08  0.199E-04    2.49      65.0  T
     SCC iter.                  ...        0 min,  0.017 sec
     gradient                   ...        0 min,  0.028 sec
 * total energy  :   -82.2956998 Eh     change       -0.5116822E-04 Eh
   gradient norm :     0.0047714 Eh/α   predicted    -0.4470948E-04 ( -12.62%)
   displ. norm   :     0.0121164 α      lambda       -0.9228965E-05
   maximum displ.:     0.0060522 α      in ANC's #39, #37, #40, ...

........................................................................
.............................. CYCLE   11 ..............................
........................................................................
   1    -83.3678426 -0.833678E+02  0.584E-03    2.49       0.0  T
   2    -83.3678426 -0.485345E-07  0.346E-03    2.49       3.7  T
   3    -83.3678425  0.121631E-06  0.164E-03    2.49       7.9  T
   4    -83.3678426 -0.131458E-06  0.471E-04    2.49      27.4  T
   5    -83.3678426 -0.143849E-07  0.112E-04    2.49     115.2  T
     SCC iter.                  ...        0 min,  0.014 sec
     gradient                   ...        0 min,  0.028 sec
 * total energy  :   -82.2957065 Eh     change       -0.6667269E-05 Eh
   gradient norm :     0.0022600 Eh/α   predicted    -0.4622732E-05 ( -30.67%)
   displ. norm   :     0.0114280 α      lambda       -0.7116389E-05
   maximum displ.:     0.0037487 α      in ANC's #39, #6, #11, ...

........................................................................
.............................. CYCLE   12 ..............................
........................................................................
   1    -83.3680582 -0.833681E+02  0.483E-03    2.49       0.0  T
   2    -83.3680582 -0.436025E-07  0.288E-03    2.49       4.5  T
   3    -83.3680582  0.644098E-07  0.136E-03    2.49       9.5  T
   4    -83.3680582 -0.799280E-07  0.284E-04    2.49      45.5  T
   5    -83.3680582 -0.408372E-08  0.102E-04    2.49     126.4  T
     SCC iter.                  ...        0 min,  0.014 sec
     gradient                   ...        0 min,  0.028 sec
 * total energy  :   -82.2957115 Eh     change       -0.5052777E-05 Eh
   gradient norm :     0.0012264 Eh/α   predicted    -0.3575641E-05 ( -29.23%)
   displ. norm   :     0.0177476 α      lambda       -0.5696154E-05
   maximum displ.:     0.0066662 α      in ANC's #6, #11, #13, ...

........................................................................
.............................. CYCLE   13 ..............................
........................................................................
   1    -83.3683736 -0.833684E+02  0.582E-03    2.49       0.0  T
   2    -83.3683736 -0.380793E-07  0.353E-03    2.49       3.7  T
   3    -83.3683734  0.234152E-06  0.232E-03    2.49       5.6  T
   4    -83.3683736 -0.261913E-06  0.469E-04    2.49      27.5  T
   5    -83.3683737 -0.130446E-07  0.155E-04    2.49      83.5  T
     SCC iter.                  ...        0 min,  0.015 sec
     gradient                   ...        0 min,  0.028 sec
 * total energy  :   -82.2957172 Eh     change       -0.5631254E-05 Eh
   gradient norm :     0.0035709 Eh/α   predicted    -0.2857318E-05 ( -49.26%)
   displ. norm   :     0.0119527 α      lambda       -0.5723276E-05
   maximum displ.:     0.0049042 α      in ANC's #6, #11, #13, ...

........................................................................
.............................. CYCLE   14 ..............................
........................................................................
   1    -83.3685240 -0.833685E+02  0.318E-03    2.49       0.0  T
   2    -83.3685240 -0.135059E-08  0.197E-03    2.49       6.5  T
   3    -83.3685239  0.111179E-06  0.170E-03    2.49       7.6  T
   4    -83.3685241 -0.140075E-06  0.203E-04    2.49      63.6  T
   5    -83.3685241 -0.250682E-08  0.701E-05    2.49     184.1  T
     SCC iter.                  ...        0 min,  0.014 sec
     gradient                   ...        0 min,  0.028 sec
 * total energy  :   -82.2957222 Eh     change       -0.4991227E-05 Eh
   gradient norm :     0.0028451 Eh/α   predicted    -0.2904003E-05 ( -41.82%)
   displ. norm   :     0.0361485 α      lambda       -0.1487542E-04
   maximum displ.:     0.0153165 α      in ANC's #6, #11, #13, ...

........................................................................
.............................. CYCLE   15 ..............................
........................................................................
   1    -83.3688839 -0.833689E+02  0.896E-03    2.49       0.0  T
   2    -83.3688839  0.182831E-07  0.559E-03    2.49       2.3  T
   3    -83.3688830  0.905023E-06  0.489E-03    2.49       2.6  T
   4    -83.3688841 -0.115521E-05  0.547E-04    2.49      23.6  T
   5    -83.3688842 -0.190494E-07  0.162E-04    2.49      79.8  T
   6    -83.3688842 -0.567269E-09  0.862E-05    2.49     149.8  T
     SCC iter.                  ...        0 min,  0.016 sec
     gradient                   ...        0 min,  0.028 sec
 * total energy  :   -82.2957313 Eh     change       -0.9126558E-05 Eh
   gradient norm :     0.0013958 Eh/α   predicted    -0.7464650E-05 ( -18.21%)
   displ. norm   :     0.0232104 α      lambda       -0.4388600E-05
   maximum displ.:     0.0104638 α      in ANC's #6, #11, #13, ...

........................................................................
.............................. CYCLE   16 ..............................
........................................................................
   1    -83.3690148 -0.833690E+02  0.560E-03    2.49       0.0  T
   2    -83.3690148  0.366960E-08  0.349E-03    2.49       3.7  T
   3    -83.3690144  0.379502E-06  0.281E-03    2.49       4.6  T
   4    -83.3690149 -0.431847E-06  0.323E-04    2.49      40.0  T
   5    -83.3690149 -0.596906E-08  0.993E-05    2.49     130.1  T
     SCC iter.                  ...        0 min,  0.014 sec
     gradient                   ...        0 min,  0.028 sec
 * total energy  :   -82.2957362 Eh     change       -0.4888242E-05 Eh
   gradient norm :     0.0017322 Eh/α   predicted    -0.2201630E-05 ( -54.96%)
   displ. norm   :     0.0275836 α      lambda       -0.6911827E-05
   maximum displ.:     0.0130565 α      in ANC's #6, #11, #13, ...

........................................................................
.............................. CYCLE   17 ..............................
........................................................................
   1    -83.3690314 -0.833690E+02  0.783E-03    2.49       0.0  T
   2    -83.3690315 -0.325979E-07  0.474E-03    2.49       2.7  T
   3    -83.3690312  0.237787E-06  0.221E-03    2.49       5.9  T
   4    -83.3690315 -0.260537E-06  0.346E-04    2.49      37.3  T
   5    -83.3690315 -0.576891E-08  0.107E-04    2.49     120.4  T
     SCC iter.                  ...        0 min,  0.014 sec
     gradient                   ...        0 min,  0.028 sec
 * total energy  :   -82.2957434 Eh     change       -0.7209462E-05 Eh
   gradient norm :     0.0018188 Eh/α   predicted    -0.3463082E-05 ( -51.96%)
   displ. norm   :     0.0237912 α      lambda       -0.4107494E-05
   maximum displ.:     0.0117934 α      in ANC's #6, #3, #11, ...

........................................................................
.............................. CYCLE   18 ..............................
........................................................................
   1    -83.3690245 -0.833690E+02  0.608E-03    2.49       0.0  T
   2    -83.3690245 -0.622983E-08  0.365E-03    2.49       3.5  T
   3    -83.3690243  0.254819E-06  0.217E-03    2.49       6.0  T
   4    -83.3690245 -0.272799E-06  0.237E-04    2.49      54.4  T
   5    -83.3690245 -0.317279E-08  0.838E-05    2.49     154.1  T
     SCC iter.                  ...        0 min,  0.013 sec
     gradient                   ...        0 min,  0.027 sec
 * total energy  :   -82.2957478 Eh     change       -0.4447485E-05 Eh
   gradient norm :     0.0011210 Eh/α   predicted    -0.2069457E-05 ( -53.47%)
   displ. norm   :     0.0229618 α      lambda       -0.3344283E-05
   maximum displ.:     0.0118974 α      in ANC's #6, #3, #10, ...

........................................................................
.............................. CYCLE   19 ..............................
........................................................................
   1    -83.3690009 -0.833690E+02  0.556E-03    2.49       0.0  T
   2    -83.3690009  0.146942E-07  0.340E-03    2.49       3.8  T
   3    -83.3690005  0.413177E-06  0.300E-03    2.49       4.3  T
   4    -83.3690010 -0.484878E-06  0.227E-04    2.49      56.8  T
   5    -83.3690010 -0.268707E-08  0.933E-05    2.49     138.3  T
     SCC iter.                  ...        0 min,  0.013 sec
     gradient                   ...        0 min,  0.027 sec
 * total energy  :   -82.2957514 Eh     change       -0.3563669E-05 Eh
   gradient norm :     0.0006972 Eh/α   predicted    -0.1674311E-05 ( -53.02%)
   displ. norm   :     0.0191238 α      lambda       -0.2727796E-05
   maximum displ.:     0.0101551 α      in ANC's #6, #3, #10, ...

   *** GEOMETRY OPTIMIZATION CONVERGED AFTER 19 ITERATIONS ***

------------------------------------------------------------------------
 total energy gain   :        -0.1762867 Eh     -110.6216 kcal/mol
 total RMSD          :         0.0478976 a0        0.0253 Å
 total power (kW/mol):       -24.3600409 (step) -458.7368 (real)
------------------------------------------------------------------------

 ANCopt (total)                0 d,  0 h,  0 min,  1.009 sec
 optimizer setup                ...        0 min,  0.000 sec (  0.009%)
 model hessian                  ...        0 min,  0.033 sec (  3.231%)
 ANC generation                 ...        0 min,  0.003 sec (  0.272%)
 coordinate transformation      ...        0 min,  0.000 sec (  0.028%)
 single point calculation       ...        0 min,  0.967 sec ( 95.796%)
 optimization log               ...        0 min,  0.004 sec (  0.395%)
 hessian update                 ...        0 min,  0.000 sec (  0.042%)
 rational function              ...        0 min,  0.002 sec (  0.150%)

================
 final structure:
================
60
 xtb: 6.5.0 (homebrew)
C            3.39918151862273      -37.84855986165378       15.96553586302719
C            3.68468034238758      -38.14967023710273       17.43471396381034
O            3.24111391258957      -37.05657342083728       18.23999810104303
C            2.86886877406389      -39.37541357044400       17.86418464914519
C            5.20798086666482      -38.26780912081776       17.80603251669066
C            5.72018514042069      -39.69484579821115       17.98440453851861
C            6.12196745686093      -37.52247707966280       16.82606075772681
O            5.29030607788398      -37.57924719002948       19.05567771218198
B            4.16300994169537      -36.83266778155188       19.22366237435760
C            3.92937261238042      -35.83943974716259       20.41793953185659
C            4.94962821146696      -35.79330097624926       21.41313459744660
C            4.99579081129937      -34.86631134794457       22.44404498710177
H            5.93008983518252      -34.81094939420895       22.99261508552155
C            3.83394970214999      -34.18811516995320       23.09550918551918
H            4.06819360782381      -33.79938922462981       24.08173342638176
C            2.47424903105920      -34.80133551778905       23.09518510648141
B            1.71695142518409      -34.85471133646371       24.45486327127268
O            2.21453861032808      -34.38284433849473       25.63986326375731
C            1.34413860459650      -34.78957202772896       26.69508268757519
C            1.18782031877890      -33.65096081074037       27.70032005845170
C            2.01453274470372      -35.98274287972040       27.38849735401242
C            0.02649754948611      -35.18771477330422       25.93606717191420
C           -0.99543180120708      -34.04540036512997       25.87326374730658
C           -0.66221453787219      -36.44779272754054       26.45550641784197
O            0.47804016219290      -35.41433569064888       24.60250544002264
C            1.91450683111432      -35.34219055468365       22.01043312612138
C            2.48232015964988      -35.44762155436960       20.66195512360172
H            1.80822711977405      -35.92734178901247       19.96134449891902
C            3.32825567248438      -34.39457157666449       20.02561883677428
C            3.91765326840270      -33.28291810987237       20.67633010946115
C            4.35623308277463      -33.32968873585641       21.99404525106358
H            4.97092808944952      -32.49683274207474       22.31852150851165
H            2.32293611139442      -37.80211825221779       15.81852741975365
H            3.80636114944838      -38.63516889724179       15.33631603667367
H            3.82015933855514      -36.89310220589823       15.66978283762990
H            1.81304565993377      -39.15318516102489       17.72709036869734
H            3.03338726191305      -39.58567073867345       18.91800124779118
H            3.12657334898407      -40.24663364927465       17.26968717793256
H            5.58795292399170      -40.26129003000285       17.06670604788952
H            5.20650367262720      -40.19569929528330       18.79843500154644
H            6.77921311972271      -39.65908055692324       18.22709209591606
H            6.14105739535833      -38.01300486259414       15.85763057675070
H            7.12893055548795      -37.50846907568862       17.23649490809136
H            5.79268517995696      -36.49278354155448       16.71142160665893
H            5.87691249013924      -36.27695317344786       21.13789761192235
H            2.14605878619855      -33.46968866706716       28.18088876776092
H            0.45915324051303      -33.92057727106445       28.46014763975111
H            0.87821815014863      -32.73365122736081       27.21027078068090
H            2.99281216757291      -35.66987613240710       27.74637332996893
H            2.16053282093656      -36.79432100645952       26.68003875910982
H            1.42428102981589      -36.33010793099601       28.23113433584603
H           -1.42111037409120      -33.84350717001158       26.85159863045451
H           -1.79257039779014      -34.33476389780302       25.19234106960525
H           -0.52950761539952      -33.14543218046176       25.47994470545886
H           -0.93644097068670      -36.32595295772246       27.49980960506966
H           -0.02106696812887      -37.31645117716121       26.34647475585814
H           -1.56329912072862      -36.61989664083810       25.87212127239156
H            0.92858380365229      -35.77346168944567       22.12149001695904
H            3.16212462005895      -34.27327861061357       18.96080126294481
H            4.35859747802293      -32.52962855020845       20.03662186746930

 Bond Distances (Angstroems)
 ---------------------------
C1-C2=1.5267         C1-H33=1.0872        C1-H34=1.0865        C1-H35=1.0852        C2-C1=1.5267         C2-O3=1.4283         
C2-C4=1.5338         C2-C5=1.5723         O3-C2=1.4283         O3-B9=1.3666         C4-C2=1.5338         C4-H36=1.0876        
C4-H37=1.0871        C4-H38=1.0858        C5-C2=1.5723         C5-C6=1.5266         C5-C7=1.5334         C5-O8=1.4292         
C6-C5=1.5266         C6-H39=1.0865        C6-H40=1.0851        C6-H41=1.0871        C7-C5=1.5334         C7-H42=1.0857        
C7-H43=1.0875        C7-H44=1.0871        O8-C5=1.4292         O8-B9=1.3625         B9-O3=1.3666         B9-O8=1.3625         
B9-C10=1.5708        C10-B9=1.5708        C10-C11=1.4260       C10-C27=1.5189       C10-C29=1.6134       C11-C10=1.4260       
C11-C12=1.3872       C11-H45=1.0814       C12-C11=1.3872       C12-H13=1.0849       C12-C14=1.4947       C12-C31=1.7242       
H13-C12=1.0849       C14-C12=1.4947       C14-H15=1.0856       C14-C16=1.4916       C14-C31=1.4909       H15-C14=1.0856       
C16-C14=1.4916       C16-B17=1.5573       C16-C26=1.3351       B17-C16=1.5573       B17-O18=1.3691       B17-O25=1.3674       
O18-B17=1.3691       O18-C19=1.4271       C19-O18=1.4271       C19-C20=1.5269       C19-C21=1.5342       C19-C22=1.5719       
C20-C19=1.5269       C20-H46=1.0872       C20-H47=1.0867       C20-H48=1.0851       C21-C19=1.5342       C21-H49=1.0877       
C21-H50=1.0871       C21-H51=1.0859       C22-C19=1.5719       C22-C23=1.5340       C22-C24=1.5271       C22-O25=1.4261       
C23-C22=1.5340       C23-H52=1.0859       C23-H53=1.0876       C23-H54=1.0871       C24-C22=1.5271       C24-H55=1.0866       
C24-H56=1.0851       C24-H57=1.0872       O25-B17=1.3674       O25-C22=1.4261       C26-C16=1.3351       C26-C27=1.4669       
C26-H58=1.0818       C27-C10=1.5189       C27-C26=1.4669       C27-H28=1.0842       C27-C29=1.4931       H28-C27=1.0842       
C29-C10=1.6134       C29-C27=1.4931       C29-C30=1.4165       C29-H59=1.0845       C30-C29=1.4165       C30-C31=1.3896       
C30-H60=1.0822       C31-C12=1.7242       C31-C14=1.4909       C31-C30=1.3896       C31-H32=1.0848       H32-C31=1.0848       
H33-C1=1.0872        H34-C1=1.0865        H35-C1=1.0852        H36-C4=1.0876        H37-C4=1.0871        H38-C4=1.0858        
H39-C6=1.0865        H40-C6=1.0851        H41-C6=1.0871        H42-C7=1.0857        H43-C7=1.0875        H44-C7=1.0871        
H45-C11=1.0814       H46-C20=1.0872       H47-C20=1.0867       H48-C20=1.0851       H49-C21=1.0877       H50-C21=1.0871       
H51-C21=1.0859       H52-C23=1.0859       H53-C23=1.0876       H54-C23=1.0871       H55-C24=1.0866       H56-C24=1.0851       
H57-C24=1.0872       H58-C26=1.0818       H59-C29=1.0845       H60-C30=1.0822       
 C  H  Rav=1.0858 sigma=0.0016  Rmin=1.0814  Rmax=1.0877    32
 C  B  Rav=1.5640 sigma=0.0068  Rmin=1.5573  Rmax=1.5708     2
 C  C  Rav=1.5059 sigma=0.0798  Rmin=1.3351  Rmax=1.7242    23
 O  B  Rav=1.3664 sigma=0.0024  Rmin=1.3625  Rmax=1.3691     4
 O  C  Rav=1.4277 sigma=0.0012  Rmin=1.4261  Rmax=1.4292     4

 selected bond angles (degree)
 --------------------
H33-C1-C2=108.88               H34-C1-C2=110.15               H34-C1-H33=108.88              H35-C1-C2=111.31               
H35-C1-H33=108.03              H35-C1-H34=109.53              O3-C2-C1=109.48                C4-C2-C1=109.12                
C4-C2-O3=106.77                C5-C2-C1=115.04                C5-C2-O3=103.02                C5-C2-C4=112.90                
B9-O3-C2=108.77                H36-C4-C2=108.53               H37-C4-C2=110.21               H37-C4-H36=107.98              
H38-C4-C2=111.20               H38-C4-H36=108.99              H38-C4-H37=109.86              C6-C5-C2=115.02                
C7-C5-C2=112.96                C7-C5-C6=109.21                O8-C5-C2=103.07                O8-C5-C6=109.20                
O8-C5-C7=106.88                H39-C6-C5=110.35               H40-C6-C5=111.12               H40-C6-H39=109.60              
H41-C6-C5=108.80               H41-C6-H39=108.92              H41-C6-H40=107.99              H42-C7-C5=111.16               
H43-C7-C5=108.48               H43-C7-H42=109.04              H44-C7-C5=110.32               H44-C7-H42=109.83              
H44-C7-H43=107.94              B9-O8-C5=108.91                O8-B9-O3=112.31                C10-B9-O3=123.40               
C10-B9-O8=124.28               C11-C10-B9=116.40              C27-C10-B9=115.27              C27-C10-C11=124.14             
C29-C10-B9=115.90              C29-C10-C11=114.04             C29-C10-C27= 56.84             

 selected dihedral angles (degree)
 ---------------------------------
O3-C2-C1-H33=294.64           O3-C2-C1-H34=175.31           O3-C2-C1-H35= 53.62           C4-C2-C1-H33= 51.17           
C4-C2-C1-H34=291.84           C4-C2-C1-H35=170.15           C5-C2-C1-H33=179.23           C5-C2-C1-H34= 59.91           
C5-C2-C1-H35=298.22           B9-O3-C2-C1=220.45            B9-O3-C2-C4=102.45            B9-O3-C2-C5=343.31            
H36-C4-C2-C1=299.95           H36-C4-C2-O3= 58.19           H36-C4-C2-C5=170.69           H37-C4-C2-C1=181.90           
H37-C4-C2-O3=300.14           H37-C4-C2-C5= 52.64           H38-C4-C2-C1= 59.82           H38-C4-C2-O3=178.07           
H38-C4-C2-C5=290.57           C6-C5-C2-C1=257.29            C6-C5-C2-O3=138.23            C6-C5-C2-C4= 23.44            
C7-C5-C2-C1= 23.59            C7-C5-C2-O3=264.53            C7-C5-C2-C4=149.74            O8-C5-C2-C1=138.55            
O8-C5-C2-O3= 19.48            O8-C5-C2-C4=264.70            H39-C6-C5-C2= 59.96           H39-C6-C5-C7=291.76           
H39-C6-C5-O8=175.22           H40-C6-C5-C2=298.18           H40-C6-C5-C7=169.98           H40-C6-C5-O8= 53.44           
H41-C6-C5-C2=179.41           H41-C6-C5-C7= 51.21           H41-C6-C5-O8=294.67           H42-C7-C5-C2=290.48           
H42-C7-C5-C6= 59.82           H42-C7-C5-O8=177.83           H43-C7-C5-C2=170.60           H43-C7-C5-C6=299.94           
H43-C7-C5-O8= 57.95           H44-C7-C5-C2= 52.56           H44-C7-C5-C6=181.90           H44-C7-C5-O8=299.91           
B9-O8-C5-C2=344.25            B9-O8-C5-C6=221.53            B9-O8-C5-C7=103.51            O8-B9-O3-C2=  7.77            
C10-B9-O3-C2=188.55           O3-B9-O8-C5=  6.11            C10-B9-O8-C5=185.32           C11-C10-B9-O3=175.54          
C11-C10-B9-O8=356.42          C27-C10-B9-O3= 17.53          C27-C10-B9-O8=198.42          C29-C10-B9-O3=313.84          
C29-C10-B9-O8=134.72          
           -------------------------------------------------
          |                Final Singlepoint                |
           -------------------------------------------------

          ...................................................
          :                      SETUP                      :
          :.................................................:
          :  # basis functions                 144          :
          :  # atomic orbitals                 144          :
          :  # shells                           88          :
          :  # electrons                       150          :
          :  max. iterations                   250          :
          :  Hamiltonian                  GFN2-xTB          :
          :  restarted?                      false          :
          :  GBSA solvation                  false          :
          :  PC potential                    false          :
          :  electronic temp.          300.0000000     K    :
          :  accuracy                    1.0000000          :
          :  -> integral cutoff          0.2500000E+02      :
          :  -> integral neglect         0.1000000E-07      :
          :  -> SCF convergence          0.1000000E-05 Eh   :
          :  -> wf. convergence          0.1000000E-03 e    :
          :  Broyden damping             0.4000000          :
          ...................................................

 iter      E             dE          RMSdq      gap      omega  full diag
   1    -83.3690010 -0.833690E+02  0.473E-05    2.49       0.0  T
   2    -83.3690010  0.952127E-12  0.393E-05    2.49     328.8  T
   3    -83.3690010 -0.505622E-10  0.198E-05    2.49     651.3  T

   *** convergence criteria satisfied after 3 iterations ***

         #    Occupation            Energy/Eh            Energy/eV
      -------------------------------------------------------------
         1        2.0000           -0.6936644             -18.8756
       ...           ...                  ...                  ...
        69        2.0000           -0.4080856             -11.1046
        70        2.0000           -0.4017844             -10.9331
        71        2.0000           -0.3990094             -10.8576
        72        2.0000           -0.3950474             -10.7498
        73        2.0000           -0.3770002             -10.2587
        74        2.0000           -0.3765787             -10.2472
        75        2.0000           -0.3151659              -8.5761 (HOMO)
        76                         -0.2237228              -6.0878 (LUMO)
        77                         -0.2176975              -5.9239
        78                         -0.1520014              -4.1362
        79                         -0.1034977              -2.8163
        80                         -0.0679193              -1.8482
       ...                                ...                  ...
       144                          0.6971942              18.9716
      -------------------------------------------------------------
                  HL-Gap            0.0914432 Eh            2.4883 eV
             Fermi-level           -0.2694444 Eh           -7.3320 eV

 SCC (total)                   0 d,  0 h,  0 min,  0.042 sec
 SCC setup                      ...        0 min,  0.000 sec (  0.550%)
 Dispersion                     ...        0 min,  0.000 sec (  0.863%)
 classical contributions        ...        0 min,  0.000 sec (  0.400%)
 integral evaluation            ...        0 min,  0.006 sec ( 14.047%)
 iterations                     ...        0 min,  0.008 sec ( 20.038%)
 molecular gradient             ...        0 min,  0.027 sec ( 63.376%)
 printout                       ...        0 min,  0.000 sec (  0.717%)

         :::::::::::::::::::::::::::::::::::::::::::::::::::::
         ::                     SUMMARY                     ::
         :::::::::::::::::::::::::::::::::::::::::::::::::::::
         :: total energy             -82.295751393265 Eh    ::
         :: gradient norm              0.000697413843 Eh/a0 ::
         :: HOMO-LUMO gap              2.488295520857 eV    ::
         ::.................................................::
         :: SCC energy               -83.369001004101 Eh    ::
         :: -> isotropic ES            0.148612545125 Eh    ::
         :: -> anisotropic ES          0.010692122081 Eh    ::
         :: -> anisotropic XC          0.025593452618 Eh    ::
         :: -> dispersion             -0.061007540282 Eh    ::
         :: repulsion energy           1.072541407729 Eh    ::
         :: add. restraining           0.000063756049 Eh    ::
         :: total charge              -0.000000000000 e     ::
         :::::::::::::::::::::::::::::::::::::::::::::::::::::

           -------------------------------------------------
          |                Property Printout                |
           -------------------------------------------------

    * Orbital Energies and Occupations

         #    Occupation            Energy/Eh            Energy/eV
      -------------------------------------------------------------
         1        2.0000           -0.6936644             -18.8756
       ...           ...                  ...                  ...
        63        2.0000           -0.4365477             -11.8791
        64        2.0000           -0.4363298             -11.8731
        65        2.0000           -0.4296605             -11.6917
        66        2.0000           -0.4239639             -11.5366
        67        2.0000           -0.4183026             -11.3826
        68        2.0000           -0.4128992             -11.2356
        69        2.0000           -0.4080856             -11.1046
        70        2.0000           -0.4017844             -10.9331
        71        2.0000           -0.3990094             -10.8576
        72        2.0000           -0.3950474             -10.7498
        73        2.0000           -0.3770002             -10.2587
        74        2.0000           -0.3765787             -10.2472
        75        2.0000           -0.3151659              -8.5761 (HOMO)
        76                         -0.2237228              -6.0878 (LUMO)
        77                         -0.2176975              -5.9239
        78                         -0.1520014              -4.1362
        79                         -0.1034977              -2.8163
        80                         -0.0679193              -1.8482
        81                          0.0015540               0.0423
        82                          0.0118235               0.3217
        83                          0.0133569               0.3635
        84                          0.0247549               0.6736
        85                          0.0307935               0.8379
        86                          0.0534803               1.4553
       ...                                ...                  ...
       144                          0.6971942              18.9716
      -------------------------------------------------------------
                  HL-Gap            0.0914432 Eh            2.4883 eV
             Fermi-level           -0.2694444 Eh           -7.3320 eV

     #   Z          covCN         q      C6AA      α(0)
     1   6 C        3.755    -0.117    22.804     6.809
     2   6 C        3.860     0.129    18.447     6.108
     3   8 O        1.638    -0.375    20.386     6.095
     4   6 C        3.755    -0.117    22.792     6.807
     5   6 C        3.860     0.129    18.454     6.109
     6   6 C        3.755    -0.118    22.820     6.811
     7   6 C        3.755    -0.116    22.785     6.806
     8   8 O        1.638    -0.369    20.267     6.077
     9   5 B        2.659     0.441    15.461     6.620
    10   6 C        3.823    -0.053    21.509     6.600
    11   6 C        2.893    -0.070    29.745     8.942
    12   6 C        3.799    -0.005    20.677     6.474
    13   1 H        0.925     0.028     2.609     2.526
    14   6 C        3.865    -0.021    20.913     6.503
    15   1 H        0.925     0.042     2.417     2.431
    16   6 C        2.863    -0.086    30.148     9.000
    17   5 B        2.664     0.431    15.554     6.637
    18   8 O        1.638    -0.373    20.350     6.089
    19   6 C        3.860     0.129    18.452     6.109
    20   6 C        3.755    -0.117    22.795     6.808
    21   6 C        3.755    -0.116    22.775     6.805
    22   6 C        3.860     0.129    18.453     6.109
    23   6 C        3.755    -0.116    22.781     6.806
    24   6 C        3.755    -0.117    22.802     6.809
    25   8 O        1.638    -0.372    20.329     6.086
    26   6 C        2.896    -0.026    28.647     8.776
    27   6 C        3.862    -0.022    20.928     6.506
    28   1 H        0.925     0.041     2.435     2.440
    29   6 C        3.853    -0.000    20.552     6.448
    30   6 C        2.889    -0.075    29.875     8.961
    31   6 C        3.801    -0.004    20.647     6.469
    32   1 H        0.925     0.028     2.609     2.526
    33   1 H        0.925     0.055     2.253     2.347
    34   1 H        0.925     0.041     2.438     2.442
    35   1 H        0.925     0.052     2.294     2.369
    36   1 H        0.925     0.053     2.281     2.362
    37   1 H        0.925     0.045     2.390     2.417
    38   1 H        0.925     0.044     2.402     2.424
    39   1 H        0.925     0.041     2.433     2.439
    40   1 H        0.925     0.053     2.280     2.361
    41   1 H        0.925     0.056     2.248     2.345
    42   1 H        0.925     0.044     2.397     2.421
    43   1 H        0.925     0.054     2.275     2.359
    44   1 H        0.925     0.044     2.399     2.422
    45   1 H        0.925     0.028     2.620     2.531
    46   1 H        0.925     0.054     2.274     2.358
    47   1 H        0.925     0.039     2.458     2.452
    48   1 H        0.925     0.052     2.296     2.370
    49   1 H        0.925     0.052     2.300     2.372
    50   1 H        0.925     0.044     2.401     2.423
    51   1 H        0.925     0.042     2.423     2.434
    52   1 H        0.925     0.042     2.421     2.433
    53   1 H        0.925     0.052     2.294     2.368
    54   1 H        0.925     0.044     2.398     2.422
    55   1 H        0.925     0.039     2.458     2.452
    56   1 H        0.925     0.052     2.297     2.370
    57   1 H        0.925     0.054     2.269     2.356
    58   1 H        0.925     0.038     2.471     2.458
    59   1 H        0.925     0.032     2.560     2.502
    60   1 H        0.925     0.015     2.803     2.618

 Mol. C6AA /au·bohr⁶  :      32263.964817
 Mol. C8AA /au·bohr⁸  :     745470.744346
 Mol. α(0) /au        :        268.728925


Wiberg/Mayer (AO) data.
largest (>0.10) Wiberg bond orders for each atom

 ---------------------------------------------------------------------------
     #   Z sym  total        # sym  WBO       # sym  WBO       # sym  WBO
 ---------------------------------------------------------------------------
     1   6 C    3.994 --     2 C    0.997    34 H    0.984    33 H    0.982
                            35 H    0.982
     2   6 C    3.941 --     1 C    0.997     4 C    0.991     3 O    0.950
                             5 C    0.937
     3   8 O    2.230 --     9 B    1.131     2 C    0.950
     4   6 C    3.994 --     2 C    0.991    38 H    0.984    37 H    0.984
                            36 H    0.983
     5   6 C    3.940 --     6 C    0.997     7 C    0.991     8 O    0.948
                             2 C    0.937
     6   6 C    3.994 --     5 C    0.997    39 H    0.984    41 H    0.982
                            40 H    0.982
     7   6 C    3.995 --     5 C    0.991    42 H    0.984    44 H    0.984
                            43 H    0.983
     8   8 O    2.241 --     9 B    1.144     5 C    0.948
     9   5 B    3.375 --     8 O    1.144     3 O    1.131    10 C    0.987
    10   6 C    3.936 --    11 C    1.247     9 B    0.987    27 C    0.868
                            29 C    0.664
    11   6 C    3.975 --    12 C    1.427    10 C    1.247    45 H    0.965
                            30 C    0.217
    12   6 C    3.960 --    11 C    1.427    13 H    0.971    14 C    0.920
                            31 C    0.518
    13   1 H    0.999 --    12 C    0.971
    14   6 C    3.959 --    16 C    1.009    15 H    0.968    31 C    0.931
                            12 C    0.920
    15   1 H    0.998 --    14 C    0.968
    16   6 C    3.977 --    26 C    1.815    14 C    1.009    17 B    1.004
    17   5 B    3.377 --    25 O    1.127    18 O    1.124    16 C    1.004
    18   8 O    2.229 --    17 B    1.124    19 C    0.953
    19   6 C    3.943 --    20 C    0.997    21 C    0.991    18 O    0.953
                            22 C    0.936
    20   6 C    3.994 --    19 C    0.997    47 H    0.985    46 H    0.983
                            48 H    0.982
    21   6 C    3.994 --    19 C    0.991    51 H    0.984    50 H    0.984
                            49 H    0.983
    22   6 C    3.943 --    24 C    0.996    23 C    0.990    25 O    0.954
                            19 C    0.936
    23   6 C    3.995 --    22 C    0.990    52 H    0.985    54 H    0.984
                            53 H    0.983
    24   6 C    3.994 --    22 C    0.996    55 H    0.985    57 H    0.983
                            56 H    0.982
    25   8 O    2.231 --    17 B    1.127    22 C    0.954
    26   6 C    3.989 --    16 C    1.815    27 C    1.053    58 H    0.965
    27   6 C    3.948 --    26 C    1.053    28 H    0.969    29 C    0.916
                            10 C    0.868
    28   1 H    0.998 --    27 C    0.969
    29   6 C    3.952 --    30 C    1.263    59 H    0.971    27 C    0.916
                            10 C    0.664
    30   6 C    3.964 --    31 C    1.411    29 C    1.263    60 H    0.967
                            11 C    0.217
    31   6 C    3.956 --    30 C    1.411    32 H    0.972    14 C    0.931
                            12 C    0.518
    32   1 H    0.999 --    31 C    0.972
    33   1 H    0.997 --     1 C    0.982
    34   1 H    0.998 --     1 C    0.984
    35   1 H    0.997 --     1 C    0.982
    36   1 H    0.997 --     4 C    0.983
    37   1 H    0.998 --     4 C    0.984
    38   1 H    0.998 --     4 C    0.984
    39   1 H    0.998 --     6 C    0.984
    40   1 H    0.997 --     6 C    0.982
    41   1 H    0.997 --     6 C    0.982
    42   1 H    0.998 --     7 C    0.984
    43   1 H    0.997 --     7 C    0.983
    44   1 H    0.998 --     7 C    0.984
    45   1 H    0.999 --    11 C    0.965
    46   1 H    0.997 --    20 C    0.983
    47   1 H    0.998 --    20 C    0.985
    48   1 H    0.997 --    20 C    0.982
    49   1 H    0.997 --    21 C    0.983
    50   1 H    0.998 --    21 C    0.984
    51   1 H    0.998 --    21 C    0.984
    52   1 H    0.998 --    23 C    0.985
    53   1 H    0.997 --    23 C    0.983
    54   1 H    0.998 --    23 C    0.984
    55   1 H    0.998 --    24 C    0.985
    56   1 H    0.997 --    24 C    0.982
    57   1 H    0.997 --    24 C    0.983
    58   1 H    0.998 --    26 C    0.965
    59   1 H    0.998 --    29 C    0.971
    60   1 H    0.999 --    30 C    0.967
 ---------------------------------------------------------------------------

Topologies differ in total number of bonds
Writing topology from bond orders to xtbtopo.mol

molecular dipole:
                 x           y           z       tot (Debye)
 q only:       -0.219      -0.649      -0.078
   full:       -0.106      -0.732      -0.133       1.911
molecular quadrupole (traceless):
                xx          xy          yy          xz          yz          zz
 q only:      -52.673      13.862      85.470     -26.575     -21.389     -32.797
  q+dip:      -54.544       4.264      94.767     -20.255     -18.873     -40.223
   full:      -55.323       3.136      96.555     -21.382     -20.127     -41.231

           -------------------------------------------------
          |                Geometry Summary                 |
           -------------------------------------------------

      molecular mass/u    :      382.1099696
   center of mass at/Å    :        2.9500078     -35.9146813      21.8278579
  moments of inertia/u·Å² :        0.1223193E+04   0.6703610E+04   0.7063765E+04
rotational constants/cm⁻¹ :        0.1378166E-01   0.2514710E-02   0.2386494E-02

 * 60 selected distances

     #   Z          #   Z                                           value/Å
     1   6 C        2   6 C                                       1.5266505
     2   6 C        3   8 O                                       1.4283189
     2   6 C        4   6 C                                       1.5337668
     5   6 C        6   6 C                                       1.5266316
     5   6 C        7   6 C                                       1.5333742
     5   6 C        8   8 O                                       1.4291636
     3   8 O        9   5 B                                       1.3666096
     8   8 O        9   5 B                                       1.3624965
     9   5 B       10   6 C                                       1.5707917 (max)
    10   6 C       11   6 C                                       1.4259957
    11   6 C       12   6 C                                       1.3871616
    12   6 C       13   1 H                                       1.0848544
    12   6 C       14   6 C                                       1.4947344
    14   6 C       15   1 H                                       1.0856411
    16   6 C       17   5 B                                       1.5572648
    17   5 B       18   8 O                                       1.3691153
    18   8 O       19   6 C                                       1.4270641
    19   6 C       20   6 C                                       1.5268836
    19   6 C       21   6 C                                       1.5342455
    22   6 C       23   6 C                                       1.5340034
    22   6 C       24   6 C                                       1.5270685
    17   5 B       25   8 O                                       1.3674352
    22   6 C       25   8 O                                       1.4260558
    16   6 C       26   6 C                                       1.3351115
    10   6 C       27   6 C                                       1.5188898
    26   6 C       27   6 C                                       1.4669427
    27   6 C       28   1 H                                       1.0841533
    27   6 C       29   6 C                                       1.4931328
    29   6 C       30   6 C                                       1.4165410
    14   6 C       31   6 C                                       1.4909390
    30   6 C       31   6 C                                       1.3895731
    31   6 C       32   1 H                                       1.0847968
     1   6 C       33   1 H                                       1.0872317
     1   6 C       34   1 H                                       1.0864929
     1   6 C       35   1 H                                       1.0851690
     4   6 C       36   1 H                                       1.0876318
     4   6 C       37   1 H                                       1.0871081
     4   6 C       38   1 H                                       1.0857548
     6   6 C       39   1 H                                       1.0865151
     6   6 C       40   1 H                                       1.0850662
     6   6 C       41   1 H                                       1.0870680
     7   6 C       42   1 H                                       1.0857436
     7   6 C       43   1 H                                       1.0874867
     7   6 C       44   1 H                                       1.0871237
    11   6 C       45   1 H                                       1.0814487 (min)
    20   6 C       46   1 H                                       1.0872107
    20   6 C       47   1 H                                       1.0867322
    20   6 C       48   1 H                                       1.0851078
    21   6 C       49   1 H                                       1.0876542
    21   6 C       50   1 H                                       1.0871471
    21   6 C       51   1 H                                       1.0858623
    23   6 C       52   1 H                                       1.0858648
    23   6 C       53   1 H                                       1.0875740
    23   6 C       54   1 H                                       1.0870732
    24   6 C       55   1 H                                       1.0865608
    24   6 C       56   1 H                                       1.0851386
    24   6 C       57   1 H                                       1.0871576
    26   6 C       58   1 H                                       1.0818377
    29   6 C       59   1 H                                       1.0845037
    30   6 C       60   1 H                                       1.0821755

 * 5 distinct bonds (by element types)

   Z      Z             #   av. dist./Å        max./Å        min./Å
   1 H    6 C          32     1.0858402     1.0876542     1.0814487
   5 B    6 C           2     1.5640283     1.5707917     1.5572648
   6 C    6 C          18     1.4812025     1.5342455     1.3351115
   5 B    8 O           4     1.3664142     1.3691153     1.3624965
   6 C    8 O           4     1.4276506     1.4291636     1.4260558


optimized geometry written to: xtbopt.xyz


           -------------------------------------------------
          | TOTAL ENERGY              -82.295751393265 Eh   |
          | GRADIENT NORM               0.000697413843 Eh/α |
          | HOMO-LUMO GAP               2.488295520857 eV   |
           -------------------------------------------------

------------------------------------------------------------------------
 * finished run on 2022/07/09 at 18:33:28.000     
------------------------------------------------------------------------
 total:
 * wall-time:     0 d,  0 h,  0 min,  1.132 sec
 *  cpu-time:     0 d,  0 h,  0 min,  1.130 sec
 * ratio c/w:     0.999 speedup
 SCF:
 * wall-time:     0 d,  0 h,  0 min,  0.068 sec
 *  cpu-time:     0 d,  0 h,  0 min,  0.068 sec
 * ratio c/w:     1.000 speedup
 ANC optimizer:
 * wall-time:     0 d,  0 h,  0 min,  1.052 sec
 *  cpu-time:     0 d,  0 h,  0 min,  1.051 sec
 * ratio c/w:     0.999 speedup

