      -----------------------------------------------------------      
     |                   =====================                   |     
     |                           x T B                           |     
     |                   =====================                   |     
     |                         S. Grimme                         |     
     |          Mulliken Center for Theoretical Chemistry        |     
     |                    University of Bonn                     |     
      -----------------------------------------------------------      

   * xtb version 6.5.0 (homebrew) compiled by 'nhattrup@GPGGRP-SHANNON.CHEME.CMU.EDU' on 

   xtb is free software: you can redistribute it and/or modify it under
   the terms of the GNU Lesser General Public License as published by
   the Free Software Foundation, either version 3 of the License, or
   (at your option) any later version.
   
   xtb is distributed in the hope that it will be useful,
   but WITHOUT ANY WARRANTY; without even the implied warranty of
   MERCHANTABILITY or FITNESS FOR A PARTICULAR PURPOSE.  See the
   GNU Lesser General Public License for more details.
   
   Cite this work as:
   * C. Bannwarth, E. Caldeweyher, S. Ehlert, A. Hansen, P. Pracht,
     J. Seibert, S. Spicher, S. Grimme, WIREs Comput. Mol. Sci., 2020, 11,
     e01493. DOI: 10.1002/wcms.1493
   
   for GFN2-xTB:
   * C. Bannwarth, S. Ehlert and S. Grimme., J. Chem. Theory Comput., 2019,
     15, 1652-1671. DOI: 10.1021/acs.jctc.8b01176
   for GFN1-xTB:
   * S. Grimme, C. Bannwarth, P. Shushkov, J. Chem. Theory Comput., 2017,
     13, 1989-2009. DOI: 10.1021/acs.jctc.7b00118
   for GFN0-xTB:
   * P. Pracht, E. Caldeweyher, S. Ehlert, S. Grimme, ChemRxiv, 2019, preprint.
     DOI: 10.26434/chemrxiv.8326202.v1
   for GFN-FF:
   * S. Spicher and S. Grimme, Angew. Chem. Int. Ed., 2020, 59, 15665-15673.
     DOI: 10.1002/anie.202004239
   
   for ALPB and GBSA implicit solvation:
   * S. Ehlert, M. Stahn, S. Spicher, S. Grimme, J. Chem. Theory Comput.,
     2021, 17, 4250-4261. DOI: 10.1021/acs.jctc.1c00471
   
   for DFT-D4:
   * E. Caldeweyher, C. Bannwarth and S. Grimme, J. Chem. Phys., 2017,
     147, 034112. DOI: 10.1063/1.4993215
   * E. Caldeweyher, S. Ehlert, A. Hansen, H. Neugebauer, S. Spicher,
     C. Bannwarth and S. Grimme, J. Chem. Phys., 2019, 150, 154122.
     DOI: 10.1063/1.5090222
   * E. Caldeweyher, J.-M. Mewes, S. Ehlert and S. Grimme, Phys. Chem. Chem. Phys.
     2020, 22, 8499-8512. DOI: 10.1039/D0CP00502A
   
   for sTDA-xTB:
   * S. Grimme and C. Bannwarth, J. Chem. Phys., 2016, 145, 054103.
     DOI: 10.1063/1.4959605
   
   in the mass-spec context:
   * V. Asgeirsson, C. Bauer and S. Grimme, Chem. Sci., 2017, 8, 4879.
     DOI: 10.1039/c7sc00601b
   * J. Koopman and S. Grimme, ACS Omega 2019, 4, 12, 15120-15133.
     DOI: 10.1021/acsomega.9b02011
   
   for metadynamics refer to:
   * S. Grimme, J. Chem. Theory Comput., 2019, 155, 2847-2862
     DOI: 10.1021/acs.jctc.9b00143
   
   for SPH calculations refer to:
   * S. Spicher and S. Grimme, J. Chem. Theory Comput., 2021, 17, 1701-1714
     DOI: 10.1021/acs.jctc.0c01306
   
   with help from (in alphabetical order)
   P. Atkinson, C. Bannwarth, F. Bohle, G. Brandenburg, E. Caldeweyher
   M. Checinski, S. Dohm, S. Ehlert, S. Ehrlich, I. Gerasimov, C. Hölzer
   A. Katbashev, J. Koopman, C. Lavigne, S. Lehtola, F. März, M. Müller,
   F. Musil, H. Neugebauer, J. Pisarek, C. Plett, P. Pracht, F. Pultar,
   J. Seibert, P. Shushkov, S. Spicher, M. Stahn, M. Steiner, T. Strunk,
   J. Stückrath, T. Rose, and J. Unsleber
   
 * started run on 2022/07/09 at 18:33:42.582     

           -------------------------------------------------
          |                Calculation Setup                |
           -------------------------------------------------

          program call               : /opt/homebrew/bin/xtb bvl_bpin2_scan_9-7_xtb.xyz --chrg 0 --uhf 0 --opt --input xcontrol_bvl_bpin2_scan_9-7_xtb
          coordinate file            : bvl_bpin2_scan_9-7_xtb.xyz
          omp threads                :                     1

   ID    Z sym.   atoms
    1    6 C      1, 2, 4-7, 10-12, 14, 16, 19-24, 26, 27, 29-31
    2    8 O      3, 8, 18, 25
    3    5 B      9, 17
    4    1 H      13, 15, 28, 32-60
constraining bond 12 31 to    2.5000000 Å, actual value:    2.3884793 Å
constraining bond 10 29 to    1.7222000 Å, actual value:    1.8275712 Å

           -------------------------------------------------
          |                 G F N 2 - x T B                 |
           -------------------------------------------------

        Reference                      10.1021/acs.jctc.8b01176
      * Hamiltonian:
        H0-scaling (s, p, d)           1.850000    2.230000    2.230000
        zeta-weighting                 0.500000
      * Dispersion:
        s8                             2.700000
        a1                             0.520000
        a2                             5.000000
        s9                             5.000000
      * Repulsion:
        kExp                           1.500000    1.000000
        rExp                           1.000000
      * Coulomb:
        alpha                          2.000000
        third order                    shell-resolved
        anisotropic                    true
        a3                             3.000000
        a5                             4.000000
        cn-shift                       1.200000
        cn-exp                         4.000000
        max-rad                        5.000000


          ...................................................
          :                      SETUP                      :
          :.................................................:
          :  # basis functions                 144          :
          :  # atomic orbitals                 144          :
          :  # shells                           88          :
          :  # electrons                       150          :
          :  max. iterations                   250          :
          :  Hamiltonian                  GFN2-xTB          :
          :  restarted?                      false          :
          :  GBSA solvation                  false          :
          :  PC potential                    false          :
          :  electronic temp.          300.0000000     K    :
          :  accuracy                    1.0000000          :
          :  -> integral cutoff          0.2500000E+02      :
          :  -> integral neglect         0.1000000E-07      :
          :  -> SCF convergence          0.1000000E-05 Eh   :
          :  -> wf. convergence          0.1000000E-03 e    :
          :  Broyden damping             0.4000000          :
          ...................................................

 iter      E             dE          RMSdq      gap      omega  full diag
   1    -82.9456810 -0.829457E+02  0.474E+00    3.09       0.0  T
   2    -83.3329804 -0.387299E+00  0.291E+00    2.74       1.0  T
   3    -83.3464662 -0.134858E-01  0.141E+00    3.02       1.0  T
   4    -83.3705439 -0.240777E-01  0.436E-01    2.91       1.0  T
   5    -83.3821310 -0.115871E-01  0.169E-01    2.96       1.0  T
   6    -83.3823801 -0.249083E-03  0.100E-01    2.96       1.0  T
   7    -83.3826557 -0.275632E-03  0.266E-02    2.95       1.0  T
   8    -83.3826707 -0.150238E-04  0.119E-02    2.95       1.1  T
   9    -83.3826757 -0.494085E-05  0.578E-03    2.95       2.2  T
  10    -83.3826767 -0.100703E-05  0.273E-03    2.95       4.7  T
  11    -83.3826768 -0.109140E-06  0.108E-03    2.95      12.0  T
  12    -83.3826769 -0.517657E-07  0.342E-04    2.95      37.8  T
  13    -83.3826769  0.820393E-10  0.164E-04    2.95      78.6  T

   *** convergence criteria satisfied after 13 iterations ***

         #    Occupation            Energy/Eh            Energy/eV
      -------------------------------------------------------------
         1        2.0000           -0.6903303             -18.7848
       ...           ...                  ...                  ...
        69        2.0000           -0.4020438             -10.9402
        70        2.0000           -0.3990763             -10.8594
        71        2.0000           -0.3968409             -10.7986
        72        2.0000           -0.3945690             -10.7368
        73        2.0000           -0.3898755             -10.6091
        74        2.0000           -0.3587687              -9.7626
        75        2.0000           -0.3392099              -9.2304 (HOMO)
        76                         -0.2306873              -6.2773 (LUMO)
        77                         -0.2133784              -5.8063
        78                         -0.1824223              -4.9640
        79                         -0.1420086              -3.8643
        80                         -0.0954747              -2.5980
       ...                                ...                  ...
       144                          0.6774943              18.4356
      -------------------------------------------------------------
                  HL-Gap            0.1085226 Eh            2.9530 eV
             Fermi-level           -0.2849486 Eh           -7.7538 eV

 SCC (total)                   0 d,  0 h,  0 min,  0.071 sec
 SCC setup                      ...        0 min,  0.000 sec (  0.374%)
 Dispersion                     ...        0 min,  0.000 sec (  0.630%)
 classical contributions        ...        0 min,  0.000 sec (  0.254%)
 integral evaluation            ...        0 min,  0.006 sec (  8.718%)
 iterations                     ...        0 min,  0.036 sec ( 50.465%)
 molecular gradient             ...        0 min,  0.028 sec ( 39.062%)
 printout                       ...        0 min,  0.000 sec (  0.489%)

         :::::::::::::::::::::::::::::::::::::::::::::::::::::
         ::                     SUMMARY                     ::
         :::::::::::::::::::::::::::::::::::::::::::::::::::::
         :: total energy             -82.137241927074 Eh    ::
         :: gradient norm              1.679143589747 Eh/a0 ::
         :: HOMO-LUMO gap              2.953049502931 eV    ::
         ::.................................................::
         :: SCC energy               -83.382676852514 Eh    ::
         :: -> isotropic ES            0.148378226497 Eh    ::
         :: -> anisotropic ES          0.011582352032 Eh    ::
         :: -> anisotropic XC          0.027056230584 Eh    ::
         :: -> dispersion             -0.061858183029 Eh    ::
         :: repulsion energy           1.076636648339 Eh    ::
         :: add. restraining           0.168125384224 Eh    ::
         :: total charge              -0.000000000000 e     ::
         :::::::::::::::::::::::::::::::::::::::::::::::::::::

      ----------------------------------------------------------- 
     |                   =====================                   |
     |                        A N C O P T                        |
     |                   =====================                   |
     |               Approximate Normal Coordinate               |
     |                Rational Function Optimizer                |
      ----------------------------------------------------------- 

          ...................................................
          :                      SETUP                      :
          :.................................................:
          :   optimization level            normal          :
          :   max. optcycles                   200          :
          :   ANC micro-cycles                  20          :
          :   degrees of freedom               174          :
          :.................................................:
          :   RF solver                   davidson          :
          :   write xtbopt.log                true          :
          :   linear?                        false          :
          :   energy convergence         0.5000000E-05 Eh   :
          :   grad. convergence          0.1000000E-02 Eh/α :
          :   maximium RF displ.         1.0000000          :
          :   Hlow (freq-cutoff)         0.1000000E-01      :
          :   Hmax (freq-cutoff)         5.0000000          :
          :   S6 in model hess.         20.0000000          :
          ...................................................

generating ANC from model Hessian ...
Using Lindh-Hessian (1995)
 Shifting diagonal of input Hessian by   0.20785084344237040     
 Lowest  eigenvalues of input Hessian
    0.010000    0.166372    0.000000    0.000000    0.000000    0.000000
    0.000000    0.000000    0.207970    0.207993    0.208150    0.209505
    0.209761    0.210756    0.211154    0.211229    0.212379    0.212940
 Highest eigenvalues
    1.921601    2.103494    2.117744    2.148039    8.919000    9.007453


........................................................................
.............................. CYCLE    1 ..............................
........................................................................
   1    -83.3826769 -0.833827E+02  0.427E-05    2.95       0.0  T
   2    -83.3826769 -0.360387E-10  0.336E-05    2.95     384.1  T
   3    -83.3826769 -0.472227E-10  0.128E-05    2.95    1012.3  T
     SCC iter.                  ...        0 min,  0.008 sec
     gradient                   ...        0 min,  0.028 sec
 * total energy  :   -82.1372419 Eh     change       -0.1934680E-08 Eh
   gradient norm :     1.6791436 Eh/α   predicted     0.0000000E+00 (-100.00%)
   displ. norm   :     0.3116182 α      lambda       -0.5160714E+00
   maximum displ.:     0.2759778 α      in ANC's #174, #173, #127, ...

........................................................................
.............................. CYCLE    2 ..............................
........................................................................
   1    -83.3882098 -0.833882E+02  0.307E-01    3.34       0.0  T
   2    -83.3882409 -0.311296E-04  0.214E-01    3.34       1.0  T
   3    -83.3880674  0.173493E-03  0.148E-01    3.34       1.0  T
   4    -83.3888538 -0.786343E-03  0.218E-02    3.33       1.0  T
   5    -83.3888754 -0.216158E-04  0.717E-03    3.33       1.8  T
   6    -83.3888773 -0.190425E-05  0.322E-03    3.33       4.0  T
   7    -83.3888775 -0.206318E-06  0.109E-03    3.33      11.8  T
   8    -83.3888775 -0.683386E-08  0.353E-04    3.33      36.5  T
   9    -83.3888775 -0.420488E-08  0.145E-04    3.33      89.1  T
     SCC iter.                  ...        0 min,  0.024 sec
     gradient                   ...        0 min,  0.028 sec
 * total energy  :   -82.2652920 Eh     change       -0.1280501E+00 Eh
   gradient norm :     0.8624540 Eh/α   predicted    -0.2832407E+00 ( 121.20%)
   displ. norm   :     0.1063456 α      lambda       -0.8883713E-01
   maximum displ.:     0.0941081 α      in ANC's #174, #173, #108, ...

........................................................................
.............................. CYCLE    3 ..............................
........................................................................
   1    -83.3858832 -0.833859E+02  0.108E-01    3.21       0.0  T
   2    -83.3858928 -0.962849E-05  0.760E-02    3.21       1.0  T
   3    -83.3858843  0.850647E-05  0.536E-02    3.21       1.0  T
   4    -83.3859825 -0.982283E-04  0.811E-03    3.21       1.6  T
   5    -83.3859853 -0.274997E-05  0.295E-03    3.21       4.4  T
   6    -83.3859856 -0.353988E-06  0.128E-03    3.21      10.1  T
   7    -83.3859857 -0.282629E-07  0.349E-04    3.21      37.0  T
   8    -83.3859857 -0.300275E-09  0.106E-04    3.21     121.6  T
     SCC iter.                  ...        0 min,  0.022 sec
     gradient                   ...        0 min,  0.028 sec
 * total energy  :   -82.3104974 Eh     change       -0.4520537E-01 Eh
   gradient norm :     0.0256875 Eh/α   predicted    -0.4492114E-01 (  -0.63%)
   displ. norm   :     0.0391131 α      lambda       -0.7311889E-03
   maximum displ.:     0.0149420 α      in ANC's #36, #38, #108, ...

........................................................................
.............................. CYCLE    4 ..............................
........................................................................
   1    -83.3846818 -0.833847E+02  0.257E-02    3.20       0.0  T
   2    -83.3846834 -0.161824E-05  0.160E-02    3.20       1.0  T
   3    -83.3846782  0.522487E-05  0.114E-02    3.20       1.1  T
   4    -83.3846846 -0.641107E-05  0.220E-03    3.20       5.9  T
   5    -83.3846849 -0.258712E-06  0.458E-04    3.20      28.2  T
   6    -83.3846849 -0.654735E-08  0.272E-04    3.20      47.5  T
     SCC iter.                  ...        0 min,  0.016 sec
     gradient                   ...        0 min,  0.028 sec
 * total energy  :   -82.3110903 Eh     change       -0.5929600E-03 Eh
   gradient norm :     0.0145538 Eh/α   predicted    -0.3661622E-03 ( -38.25%)
   displ. norm   :     0.1495690 α      lambda       -0.1248013E-02
   maximum displ.:     0.1042148 α      in ANC's #1, #36, #28, ...

........................................................................
.............................. CYCLE    5 ..............................
........................................................................
   1    -83.3813843 -0.833814E+02  0.920E-02    3.17       0.0  T
   2    -83.3813908 -0.654838E-05  0.553E-02    3.17       1.0  T
   3    -83.3813309  0.599219E-04  0.331E-02    3.17       1.0  T
   4    -83.3813971 -0.661655E-04  0.442E-03    3.17       2.9  T
   5    -83.3813981 -0.101173E-05  0.120E-03    3.17      10.8  T
   6    -83.3813981 -0.298370E-07  0.715E-04    3.17      18.1  T
   7    -83.3813981 -0.944837E-08  0.192E-04    3.17      67.4  T
     SCC iter.                  ...        0 min,  0.019 sec
     gradient                   ...        0 min,  0.028 sec
 * total energy  :   -82.3113024 Eh     change       -0.2120573E-03 Eh
   gradient norm :     0.0170281 Eh/α   predicted    -0.6380803E-03 ( 200.90%)
   displ. norm   :     0.3153985 α      lambda       -0.2627003E-02
   maximum displ.:     0.2570529 α      in ANC's #1, #36, #28, ...

........................................................................
.............................. CYCLE    6 ..............................
........................................................................
   1    -83.3759053 -0.833759E+02  0.190E-01    3.14       0.0  T
   2    -83.3759203 -0.149646E-04  0.114E-01    3.14       1.0  T
   3    -83.3757733  0.147000E-03  0.505E-02    3.14       1.0  T
   4    -83.3759320 -0.158743E-03  0.685E-03    3.14       1.9  T
   5    -83.3759342 -0.216431E-05  0.231E-03    3.14       5.6  T
   6    -83.3759343 -0.748007E-07  0.151E-03    3.14       8.6  T
   7    -83.3759343 -0.568762E-07  0.278E-04    3.14      46.5  T
   8    -83.3759343 -0.125245E-08  0.107E-04    3.14     120.4  T
     SCC iter.                  ...        0 min,  0.022 sec
     gradient                   ...        0 min,  0.028 sec
 * total energy  :   -82.3099076 Eh     change        0.1394797E-02 Eh
   gradient norm :     0.0435242 Eh/α   predicted    -0.1444208E-02 (-203.54%)
   displ. norm   :     0.1873718 α      lambda       -0.4010243E-02
   maximum displ.:     0.1393460 α      in ANC's #1, #36, #38, ...

........................................................................
.............................. CYCLE    7 ..............................
........................................................................
   1    -83.3831363 -0.833831E+02  0.115E-01    3.17       0.0  T
   2    -83.3831477 -0.114281E-04  0.695E-02    3.17       1.0  T
   3    -83.3830793  0.684699E-04  0.347E-02    3.17       1.0  T
   4    -83.3831535 -0.742039E-04  0.613E-03    3.17       2.1  T
   5    -83.3831555 -0.199224E-05  0.150E-03    3.17       8.6  T
   6    -83.3831555 -0.299862E-07  0.979E-04    3.17      13.2  T
   7    -83.3831555 -0.234513E-07  0.244E-04    3.17      53.0  T
     SCC iter.                  ...        0 min,  0.019 sec
     gradient                   ...        0 min,  0.028 sec
 * total energy  :   -82.3120387 Eh     change       -0.2131133E-02 Eh
   gradient norm :     0.0158340 Eh/α   predicted    -0.2075679E-02 (  -2.60%)
   displ. norm   :     0.0328121 α      lambda       -0.2044571E-03
   maximum displ.:     0.0155153 α      in ANC's #1, #28, #36, ...

........................................................................
.............................. CYCLE    8 ..............................
........................................................................
   1    -83.3838629 -0.833839E+02  0.168E-02    3.17       0.0  T
   2    -83.3838631 -0.183237E-06  0.998E-03    3.17       1.3  T
   3    -83.3838630  0.134802E-06  0.179E-03    3.17       7.2  T
   4    -83.3838632 -0.171271E-06  0.335E-04    3.17      38.5  T
   5    -83.3838632 -0.441214E-08  0.171E-04    3.17      75.5  T
     SCC iter.                  ...        0 min,  0.014 sec
     gradient                   ...        0 min,  0.028 sec
 * total energy  :   -82.3122124 Eh     change       -0.1736708E-03 Eh
   gradient norm :     0.0093225 Eh/α   predicted    -0.1023753E-03 ( -41.05%)
   displ. norm   :     0.1520447 α      lambda       -0.6799242E-03
   maximum displ.:     0.0809225 α      in ANC's #28, #36, #38, ...

........................................................................
.............................. CYCLE    9 ..............................
........................................................................
   1    -83.3857623 -0.833858E+02  0.729E-02    3.16       0.0  T
   2    -83.3857644 -0.207505E-05  0.430E-02    3.16       1.0  T
   3    -83.3857493  0.150394E-04  0.164E-02    3.16       1.0  T
   4    -83.3857656 -0.162086E-04  0.290E-03    3.16       4.5  T
   5    -83.3857660 -0.451580E-06  0.773E-04    3.16      16.7  T
   6    -83.3857660 -0.431153E-08  0.473E-04    3.16      27.3  T
     SCC iter.                  ...        0 min,  0.016 sec
     gradient                   ...        0 min,  0.028 sec
 * total energy  :   -82.3126571 Eh     change       -0.4447316E-03 Eh
   gradient norm :     0.0122397 Eh/α   predicted    -0.3478961E-03 ( -21.77%)
   displ. norm   :     0.1183201 α      lambda       -0.2947556E-03
   maximum displ.:     0.0652607 α      in ANC's #28, #36, #38, ...

........................................................................
.............................. CYCLE   10 ..............................
........................................................................
   1    -83.3867080 -0.833867E+02  0.555E-02    3.15       0.0  T
   2    -83.3867089 -0.861753E-06  0.328E-02    3.15       1.0  T
   3    -83.3866973  0.116070E-04  0.143E-02    3.15       1.0  T
   4    -83.3867099 -0.125662E-04  0.175E-03    3.15       7.4  T
   5    -83.3867100 -0.145522E-06  0.560E-04    3.15      23.0  T
   6    -83.3867100 -0.246750E-08  0.333E-04    3.15      38.8  T
     SCC iter.                  ...        0 min,  0.016 sec
     gradient                   ...        0 min,  0.027 sec
 * total energy  :   -82.3128556 Eh     change       -0.1984616E-03 Eh
   gradient norm :     0.0125044 Eh/α   predicted    -0.1494356E-03 ( -24.70%)
   displ. norm   :     0.0820795 α      lambda       -0.1551646E-03
   maximum displ.:     0.0465142 α      in ANC's #28, #36, #17, ...

........................................................................
.............................. CYCLE   11 ..............................
........................................................................
   1    -83.3874507 -0.833875E+02  0.380E-02    3.14       0.0  T
   2    -83.3874509 -0.178918E-06  0.227E-02    3.14       1.0  T
   3    -83.3874405  0.104472E-04  0.136E-02    3.14       1.0  T
   4    -83.3874519 -0.114275E-04  0.850E-04    3.14      15.2  T
   5    -83.3874519 -0.250817E-07  0.392E-04    3.14      32.9  T
   6    -83.3874519 -0.119316E-08  0.225E-04    3.14      57.3  T
     SCC iter.                  ...        0 min,  0.016 sec
     gradient                   ...        0 min,  0.027 sec
 * total energy  :   -82.3129623 Eh     change       -0.1066958E-03 Eh
   gradient norm :     0.0057266 Eh/α   predicted    -0.7814799E-04 ( -26.76%)
   displ. norm   :     0.0586921 α      lambda       -0.1080046E-03
   maximum displ.:     0.0331192 α      in ANC's #28, #17, #14, ...

........................................................................
.............................. CYCLE   12 ..............................
........................................................................
   1    -83.3883665 -0.833884E+02  0.257E-02    3.14       0.0  T
   2    -83.3883665 -0.387997E-07  0.157E-02    3.14       1.0  T
   3    -83.3883606  0.597844E-05  0.102E-02    3.14       1.3  T
   4    -83.3883671 -0.657763E-05  0.556E-04    3.14      23.2  T
   5    -83.3883671 -0.976561E-08  0.277E-04    3.14      46.7  T
   6    -83.3883671 -0.987313E-09  0.158E-04    3.14      81.5  T
     SCC iter.                  ...        0 min,  0.016 sec
     gradient                   ...        0 min,  0.028 sec
 * total energy  :   -82.3130402 Eh     change       -0.7789637E-04 Eh
   gradient norm :     0.0039319 Eh/α   predicted    -0.5420474E-04 ( -30.41%)
   displ. norm   :     0.0544262 α      lambda       -0.9178513E-04
   maximum displ.:     0.0289647 α      in ANC's #28, #17, #14, ...

........................................................................
.............................. CYCLE   13 ..............................
........................................................................
   1    -83.3893003 -0.833893E+02  0.225E-02    3.14       0.0  T
   2    -83.3893003 -0.190372E-07  0.140E-02    3.14       1.0  T
   3    -83.3892951  0.522530E-05  0.958E-03    3.14       1.3  T
   4    -83.3893009 -0.584519E-05  0.669E-04    3.14      19.3  T
   5    -83.3893009 -0.194142E-07  0.278E-04    3.14      46.4  T
   6    -83.3893009 -0.150936E-08  0.135E-04    3.14      95.4  T
     SCC iter.                  ...        0 min,  0.016 sec
     gradient                   ...        0 min,  0.028 sec
 * total energy  :   -82.3131031 Eh     change       -0.6287241E-04 Eh
   gradient norm :     0.0057198 Eh/α   predicted    -0.4603189E-04 ( -26.79%)
   displ. norm   :     0.0367506 α      lambda       -0.5144202E-04
   maximum displ.:     0.0155033 α      in ANC's #28, #17, #14, ...

........................................................................
.............................. CYCLE   14 ..............................
........................................................................
   1    -83.3897039 -0.833897E+02  0.150E-02    3.14       0.0  T
   2    -83.3897039 -0.556864E-07  0.910E-03    3.14       1.4  T
   3    -83.3897026  0.138371E-05  0.491E-03    3.14       2.6  T
   4    -83.3897041 -0.150935E-05  0.563E-04    3.14      22.9  T
   5    -83.3897041 -0.157189E-07  0.220E-04    3.14      58.5  T
   6    -83.3897041 -0.117886E-08  0.952E-05    3.14     135.6  T
     SCC iter.                  ...        0 min,  0.016 sec
     gradient                   ...        0 min,  0.027 sec
 * total energy  :   -82.3131392 Eh     change       -0.3610284E-04 Eh
   gradient norm :     0.0037563 Eh/α   predicted    -0.2577283E-04 ( -28.61%)
   displ. norm   :     0.0281982 α      lambda       -0.3412138E-04
   maximum displ.:     0.0115211 α      in ANC's #36, #17, #14, ...

........................................................................
.............................. CYCLE   15 ..............................
........................................................................
   1    -83.3895586 -0.833896E+02  0.114E-02    3.14       0.0  T
   2    -83.3895587 -0.692089E-07  0.683E-03    3.14       1.9  T
   3    -83.3895583  0.338528E-06  0.267E-03    3.14       4.8  T
   4    -83.3895587 -0.371446E-06  0.423E-04    3.14      30.5  T
   5    -83.3895587 -0.891657E-08  0.223E-04    3.14      57.9  T
     SCC iter.                  ...        0 min,  0.014 sec
     gradient                   ...        0 min,  0.028 sec
 * total energy  :   -82.3131631 Eh     change       -0.2391373E-04 Eh
   gradient norm :     0.0021631 Eh/α   predicted    -0.1708153E-04 ( -28.57%)
   displ. norm   :     0.0228773 α      lambda       -0.2357932E-04
   maximum displ.:     0.0112497 α      in ANC's #36, #14, #17, ...

........................................................................
.............................. CYCLE   16 ..............................
........................................................................
   1    -83.3891102 -0.833891E+02  0.866E-03    3.14       0.0  T
   2    -83.3891103 -0.614327E-07  0.521E-03    3.14       2.5  T
   3    -83.3891100  0.258095E-06  0.240E-03    3.14       5.4  T
   4    -83.3891103 -0.294057E-06  0.310E-04    3.14      41.6  T
   5    -83.3891103 -0.347885E-08  0.126E-04    3.14     102.2  T
     SCC iter.                  ...        0 min,  0.014 sec
     gradient                   ...        0 min,  0.028 sec
 * total energy  :   -82.3131802 Eh     change       -0.1712842E-04 Eh
   gradient norm :     0.0025685 Eh/α   predicted    -0.1180642E-04 ( -31.07%)
   displ. norm   :     0.0242174 α      lambda       -0.2142202E-04
   maximum displ.:     0.0102275 α      in ANC's #36, #14, #17, ...

........................................................................
.............................. CYCLE   17 ..............................
........................................................................
   1    -83.3885353 -0.833885E+02  0.858E-03    3.15       0.0  T
   2    -83.3885353 -0.605001E-07  0.521E-03    3.14       2.5  T
   3    -83.3885350  0.285505E-06  0.248E-03    3.14       5.2  T
   4    -83.3885354 -0.328482E-06  0.268E-04    3.14      48.2  T
   5    -83.3885354 -0.261291E-08  0.122E-04    3.14     105.5  T
     SCC iter.                  ...        0 min,  0.014 sec
     gradient                   ...        0 min,  0.028 sec
 * total energy  :   -82.3131955 Eh     change       -0.1530038E-04 Eh
   gradient norm :     0.0026960 Eh/α   predicted    -0.1071973E-04 ( -29.94%)
   displ. norm   :     0.0243294 α      lambda       -0.1684349E-04
   maximum displ.:     0.0104031 α      in ANC's #14, #17, #36, ...

........................................................................
.............................. CYCLE   18 ..............................
........................................................................
   1    -83.3881531 -0.833882E+02  0.879E-03    3.15       0.0  T
   2    -83.3881532 -0.411726E-07  0.528E-03    3.15       2.4  T
   3    -83.3881529  0.229351E-06  0.212E-03    3.15       6.1  T
   4    -83.3881532 -0.255742E-06  0.291E-04    3.15      44.3  T
   5    -83.3881532 -0.322416E-08  0.137E-04    3.15      94.0  T
     SCC iter.                  ...        0 min,  0.014 sec
     gradient                   ...        0 min,  0.028 sec
 * total energy  :   -82.3132073 Eh     change       -0.1183284E-04 Eh
   gradient norm :     0.0020104 Eh/α   predicted    -0.8430429E-05 ( -28.75%)
   displ. norm   :     0.0195238 α      lambda       -0.1103387E-04
   maximum displ.:     0.0086943 α      in ANC's #14, #17, #12, ...

........................................................................
.............................. CYCLE   19 ..............................
........................................................................
   1    -83.3881514 -0.833882E+02  0.748E-03    3.15       0.0  T
   2    -83.3881514 -0.204787E-07  0.445E-03    3.15       2.9  T
   3    -83.3881513  0.131954E-06  0.156E-03    3.15       8.3  T
   4    -83.3881515 -0.142755E-06  0.264E-04    3.15      48.8  T
   5    -83.3881515 -0.286622E-08  0.939E-05    3.15     137.5  T
     SCC iter.                  ...        0 min,  0.014 sec
     gradient                   ...        0 min,  0.028 sec
 * total energy  :   -82.3132150 Eh     change       -0.7640621E-05 Eh
   gradient norm :     0.0012964 Eh/α   predicted    -0.5523734E-05 ( -27.71%)
   displ. norm   :     0.0203465 α      lambda       -0.6461090E-05
   maximum displ.:     0.0093629 α      in ANC's #14, #17, #12, ...

........................................................................
.............................. CYCLE   20 ..............................
........................................................................
   1    -83.3885860 -0.833886E+02  0.786E-03    3.15       0.0  T
   2    -83.3885860 -0.267419E-07  0.471E-03    3.15       2.7  T
   3    -83.3885858  0.217237E-06  0.204E-03    3.15       6.3  T
   4    -83.3885860 -0.238435E-06  0.289E-04    3.15      44.6  T
   5    -83.3885860 -0.302514E-08  0.114E-04    3.15     113.4  T
     SCC iter.                  ...        0 min,  0.014 sec
     gradient                   ...        0 min,  0.028 sec
 * total energy  :   -82.3132203 Eh     change       -0.5308484E-05 Eh
   gradient norm :     0.0012942 Eh/α   predicted    -0.3234972E-05 ( -39.06%)
   displ. norm   :     0.0063313 α      lambda       -0.2586242E-05
   maximum displ.:     0.0020081 α      in ANC's #14, #28, #12, ...
 * RMSD in coord.:     0.0989336 α      energy gain  -0.1759784E+00 Eh

generating ANC from model Hessian ...
Using Lindh-Hessian (1995)
 Shifting diagonal of input Hessian by    1.0032841883212471E-002
 Lowest  eigenvalues of input Hessian
    0.010000    0.000000    0.000000    0.000000    0.000000    0.000000
    0.000000    0.010155    0.010175    0.010210    0.010885    0.011859
    0.012408    0.013317    0.013382    0.013793    0.014472    0.015169
 Highest eigenvalues
    1.721474    1.901697    1.925413    1.941871    8.773089    8.948724


........................................................................
.............................. CYCLE   21 ..............................
........................................................................
   1    -83.3888870 -0.833889E+02  0.274E-03    3.15       0.0  T
   2    -83.3888870 -0.594905E-08  0.167E-03    3.15       7.7  T
   3    -83.3888870  0.315220E-07  0.831E-04    3.15      15.5  T
   4    -83.3888870 -0.367666E-07  0.965E-05    3.15     133.8  T
     SCC iter.                  ...        0 min,  0.011 sec
     gradient                   ...        0 min,  0.028 sec
 * total energy  :   -82.3132234 Eh     change       -0.3077836E-05 Eh
   gradient norm :     0.0008729 Eh/α   predicted     0.0000000E+00 (-100.00%)
   displ. norm   :     0.0336353 α      lambda       -0.5340841E-05
   maximum displ.:     0.0153742 α      in ANC's #6, #28, #11, ...

   *** GEOMETRY OPTIMIZATION CONVERGED AFTER 21 ITERATIONS ***

------------------------------------------------------------------------
 total energy gain   :        -0.1759814 Eh     -110.4300 kcal/mol
 total RMSD          :         0.0989336 a0        0.0524 Å
 total power (kW/mol):       -22.0018662 (step) -403.5594 (real)
------------------------------------------------------------------------

 ANCopt (total)                0 d,  0 h,  0 min,  1.145 sec
 optimizer setup                ...        0 min,  0.000 sec (  0.008%)
 model hessian                  ...        0 min,  0.063 sec (  5.525%)
 ANC generation                 ...        0 min,  0.005 sec (  0.471%)
 coordinate transformation      ...        0 min,  0.000 sec (  0.027%)
 single point calculation       ...        0 min,  1.068 sec ( 93.268%)
 optimization log               ...        0 min,  0.005 sec (  0.422%)
 hessian update                 ...        0 min,  0.000 sec (  0.040%)
 rational function              ...        0 min,  0.002 sec (  0.161%)

================
 final structure:
================
60
 xtb: 6.5.0 (homebrew)
C            3.59407914545501      -37.63364285394894       15.82519311002225
C            3.78660600509789      -38.10148084533592       17.26584074324749
O            3.29703195897640      -37.10115720766936       18.15994920546206
C            2.94661266620245      -39.36321776419918       17.50081636198798
C            5.28291606676039      -38.27363261944016       17.71388948346644
C            5.79318153362828      -39.71237992299525       17.72488690855911
C            6.24932873118175      -37.40077711918646       16.90338998744638
O            5.28160227550953      -37.75817406612730       19.04596380274791
B            4.15628705494851      -37.00373597296691       19.22287809058041
C            3.88112906649046      -36.12951851410622       20.48003506035105
C            4.85609025423802      -36.16415470024861       21.56179743050559
C            4.86632990648763      -35.44534882971472       22.68208973497875
H            5.66508398303097      -35.59202605362822       23.39430272713249
C            3.85643916609689      -34.37106247231228       23.02825808887109
H            4.10943732802943      -33.95755967632900       24.00680625659644
C            2.47325190436380      -34.98045742318584       23.13363697343087
B            1.73959884404314      -34.92780619508220       24.50909159343132
O            2.27264278822146      -34.37409317022516       25.64051897931893
C            1.40727720912219      -34.65135062323975       26.74036331563335
C            1.30851602467393      -33.41965912125548       27.63749050689083
C            2.04668019644686      -35.79941958616831       27.53203267499087
C            0.06446874333749      -35.06969716265537       26.03880917361272
C           -0.91818784545527      -33.90167133207598       25.88456443858405
C           -0.66121973640451      -36.24618582546147       26.68785779202572
O            0.48682036799848      -35.43368170137620       24.72507746348489
C            1.88837672090112      -35.57683186961033       22.08687462993803
C            2.42364837956861      -35.72185961007283       20.72902735692647
H            1.73624615009767      -36.23005787864791       20.06002899733608
C            3.19027053890715      -34.61627217944240       20.05686811526938
C            3.62221817814586      -33.40327344111493       20.71540706580865
C            3.88072553062004      -33.24866510028107       22.01342814138055
H            4.18414827334692      -32.27859898005995       22.37963938112993
H            2.52927184295355      -37.57103755930951       15.61443380938094
H            4.04763766500460      -38.34126746123400       15.13657066723513
H            4.02574329547225      -36.65009118870218       15.67046231207614
H            1.90028398474649      -39.11917957238633       17.33142768365917
H            3.05144728631202      -39.69880422901031       18.52955747801340
H            3.23753866970436      -40.15958053785481       16.82237146324297
H            5.71953609099121      -40.14578402460806       16.73108247883126
H            5.23522639892521      -40.32142248316580       18.42863269072190
H            6.83588607592225      -39.71297988411185       18.03256951300714
H            6.34032648216497      -37.75720579805998       15.88179130794772
H            7.22633530481182      -37.43473786413637       17.37984187413431
H            5.91217216148534      -36.36714794513683       16.90519294243420
H            5.64845384895891      -36.88312165791585       21.39172261033990
H            2.28185132361158      -33.22822663987295       28.08247455504735
H            0.58688743043724      -33.59145621635911       28.43168961515870
H            1.01981088725000      -32.54150380036150       27.06912823891377
H            3.04421061522629      -35.49410604027238       27.83964763670918
H            2.14452925755803      -36.68028867605956       26.90245338572004
H            1.46269513365131      -36.04052491900572       28.41522241004626
H           -1.31487172355457      -33.59265345048275       26.84703510309875
H           -1.74004837231753      -34.22511872683295       25.24992316639908
H           -0.43057014388995      -33.06052267190037       25.39835723390430
H           -0.90613653761426      -36.01221140269533       27.72044708499919
H           -0.05839137661486      -37.14766810593806       26.65268248944002
H           -1.58218186153591      -36.43562820974213       26.14216378880737
H            0.90586741868705      -36.00486974723398       22.24077041060934
H            3.05416519131826      -34.55555356872236       18.98805141377335
H            3.71836624026554      -32.54679780072461       20.05728304520119

 Bond Distances (Angstroems)
 ---------------------------
C1-C2=1.5269         C1-H33=1.0873        C1-H34=1.0866        C1-H35=1.0852        C2-C1=1.5269         C2-O3=1.4282         
C2-C4=1.5339         C2-C5=1.5714         O3-C2=1.4282         O3-B9=1.3703         C4-C2=1.5339         C4-H36=1.0877        
C4-H37=1.0872        C4-H38=1.0859        C5-C2=1.5714         C5-C6=1.5266         C5-C7=1.5339         C5-O8=1.4283         
C6-C5=1.5266         C6-H39=1.0867        C6-H40=1.0851        C6-H41=1.0872        C7-C5=1.5339         C7-H42=1.0858        
C7-H43=1.0875        C7-H44=1.0872        O8-C5=1.4283         O8-B9=1.3663         B9-O3=1.3703         B9-O8=1.3663         
B9-C10=1.5558        C10-B9=1.5558        C10-C11=1.4567       C10-C27=1.5338       C10-C29=1.7165       C11-C10=1.4567       
C11-C12=1.3311       C11-H45=1.0834       C12-C11=1.3311       C12-H13=1.0802       C12-C14=1.5145       H13-C12=1.0802       
C14-C12=1.5145       C14-H15=1.0920       C14-C16=1.5151       C14-C31=1.5134       H15-C14=1.0920       C16-C14=1.5151       
C16-B17=1.5598       C16-C26=1.3392       B17-C16=1.5598       B17-O18=1.3678       B17-O25=1.3682       O18-B17=1.3678       
O18-C19=1.4267       C19-O18=1.4267       C19-C20=1.5270       C19-C21=1.5342       C19-C22=1.5717       C20-C19=1.5270       
C20-H46=1.0872       C20-H47=1.0867       C20-H48=1.0851       C21-C19=1.5342       C21-H49=1.0876       C21-H50=1.0871       
C21-H51=1.0859       C22-C19=1.5717       C22-C23=1.5342       C22-C24=1.5271       C22-O25=1.4271       C23-C22=1.5342       
C23-H52=1.0859       C23-H53=1.0876       C23-H54=1.0871       C24-C22=1.5271       C24-H55=1.0867       C24-H56=1.0850       
C24-H57=1.0871       O25-B17=1.3682       O25-C22=1.4271       C26-C16=1.3392       C26-C27=1.4667       C26-H58=1.0827       
C27-C10=1.5338       C27-C26=1.4667       C27-H28=1.0855       C27-C29=1.5039       H28-C27=1.0855       C29-C10=1.7165       
C29-C27=1.5039       C29-C30=1.4462       C29-H59=1.0792       C30-C29=1.4462       C30-C31=1.3325       C30-H60=1.0844       
C31-C14=1.5134       C31-C30=1.3325       C31-H32=1.0804       H32-C31=1.0804       H33-C1=1.0873        H34-C1=1.0866        
H35-C1=1.0852        H36-C4=1.0877        H37-C4=1.0872        H38-C4=1.0859        H39-C6=1.0867        H40-C6=1.0851        
H41-C6=1.0872        H42-C7=1.0858        H43-C7=1.0875        H44-C7=1.0872        H45-C11=1.0834       H46-C20=1.0872       
H47-C20=1.0867       H48-C20=1.0851       H49-C21=1.0876       H50-C21=1.0871       H51-C21=1.0859       H52-C23=1.0859       
H53-C23=1.0876       H54-C23=1.0871       H55-C24=1.0867       H56-C24=1.0850       H57-C24=1.0871       H58-C26=1.0827       
H59-C29=1.0792       H60-C30=1.0844       
 C  H  Rav=1.0858 sigma=0.0025  Rmin=1.0792  Rmax=1.0920    32
 C  B  Rav=1.5578 sigma=0.0020  Rmin=1.5558  Rmax=1.5598     2
 C  C  Rav=1.5026 sigma=0.0838  Rmin=1.3311  Rmax=1.7165    22
 O  B  Rav=1.3681 sigma=0.0014  Rmin=1.3663  Rmax=1.3703     4
 O  C  Rav=1.4276 sigma=0.0007  Rmin=1.4267  Rmax=1.4283     4

 selected bond angles (degree)
 --------------------
H33-C1-C2=108.91               H34-C1-C2=110.23               H34-C1-H33=108.87              H35-C1-C2=111.23               
H35-C1-H33=108.04              H35-C1-H34=109.50              O3-C2-C1=109.44                C4-C2-C1=109.12                
C4-C2-O3=107.01                C5-C2-C1=115.00                C5-C2-O3=102.98                C5-C2-C4=112.81                
B9-O3-C2=108.69                H36-C4-C2=108.57               H37-C4-C2=110.25               H37-C4-H36=108.02              
H38-C4-C2=111.15               H38-C4-H36=108.96              H38-C4-H37=109.82              C6-C5-C2=115.06                
C7-C5-C2=112.76                C7-C5-C6=109.24                O8-C5-C2=103.03                O8-C5-C6=109.49                
O8-C5-C7=106.74                H39-C6-C5=110.28               H40-C6-C5=111.21               H40-C6-H39=109.54              
H41-C6-C5=108.85               H41-C6-H39=108.88              H41-C6-H40=108.02              H42-C7-C5=111.29               
H43-C7-C5=108.47               H43-C7-H42=109.07              H44-C7-C5=110.17               H44-C7-H42=109.85              
H44-C7-H43=107.91              B9-O8-C5=108.71                O8-B9-O3=112.13                C10-B9-O3=123.77               
C10-B9-O8=124.10               C11-C10-B9=117.93              C27-C10-B9=116.65              C27-C10-C11=121.45             
C29-C10-B9=111.55              C29-C10-C11=118.26             C29-C10-C27= 54.78             

 selected dihedral angles (degree)
 ---------------------------------
O3-C2-C1-H33=293.98           O3-C2-C1-H34=174.60           O3-C2-C1-H35= 52.94           C4-C2-C1-H33= 50.76           
C4-C2-C1-H34=291.39           C4-C2-C1-H35=169.73           C5-C2-C1-H33=178.67           C5-C2-C1-H34= 59.29           
C5-C2-C1-H35=297.64           B9-O3-C2-C1=220.17            B9-O3-C2-C4=102.06            B9-O3-C2-C5=342.95            
H36-C4-C2-C1=299.52           H36-C4-C2-O3= 57.84           H36-C4-C2-C5=170.39           H37-C4-C2-C1=181.37           
H37-C4-C2-O3=299.69           H37-C4-C2-C5= 52.24           H38-C4-C2-C1= 59.35           H38-C4-C2-O3=177.67           
H38-C4-C2-C5=290.22           C6-C5-C2-C1=258.86            C6-C5-C2-O3=139.88            C6-C5-C2-C4= 24.88            
C7-C5-C2-C1= 25.06            C7-C5-C2-O3=266.09            C7-C5-C2-C4=151.09            O8-C5-C2-C1=139.75            
O8-C5-C2-O3= 20.78            O8-C5-C2-C4=265.78            H39-C6-C5-C2= 59.72           H39-C6-C5-C7=291.72           
H39-C6-C5-O8=175.16           H40-C6-C5-C2=298.00           H40-C6-C5-C7=170.00           H40-C6-C5-O8= 53.44           
H41-C6-C5-C2=179.11           H41-C6-C5-C7= 51.11           H41-C6-C5-O8=294.55           H42-C7-C5-C2=289.94           
H42-C7-C5-C6= 59.21           H42-C7-C5-O8=177.51           H43-C7-C5-C2=169.96           H43-C7-C5-C6=299.23           
H43-C7-C5-O8= 57.52           H44-C7-C5-C2= 52.05           H44-C7-C5-C6=181.32           H44-C7-C5-O8=299.61           
B9-O8-C5-C2=342.52            B9-O8-C5-C6=219.63            B9-O8-C5-C7=101.49            O8-B9-O3-C2=  7.02            
C10-B9-O3-C2=186.77           O3-B9-O8-C5=  7.73            C10-B9-O8-C5=187.99           C11-C10-B9-O3=177.42          
C11-C10-B9-O8=357.14          C27-C10-B9-O3= 19.48          C27-C10-B9-O8=199.19          C29-C10-B9-O3=319.19          
C29-C10-B9-O8=138.90          
           -------------------------------------------------
          |                Final Singlepoint                |
           -------------------------------------------------

          ...................................................
          :                      SETUP                      :
          :.................................................:
          :  # basis functions                 144          :
          :  # atomic orbitals                 144          :
          :  # shells                           88          :
          :  # electrons                       150          :
          :  max. iterations                   250          :
          :  Hamiltonian                  GFN2-xTB          :
          :  restarted?                      false          :
          :  GBSA solvation                  false          :
          :  PC potential                    false          :
          :  electronic temp.          300.0000000     K    :
          :  accuracy                    1.0000000          :
          :  -> integral cutoff          0.2500000E+02      :
          :  -> integral neglect         0.1000000E-07      :
          :  -> SCF convergence          0.1000000E-05 Eh   :
          :  -> wf. convergence          0.1000000E-03 e    :
          :  Broyden damping             0.4000000          :
          ...................................................

 iter      E             dE          RMSdq      gap      omega  full diag
   1    -83.3888870 -0.833889E+02  0.461E-05    3.15       0.0  T
   2    -83.3888870 -0.497380E-11  0.359E-05    3.15     359.3  T
   3    -83.3888870 -0.513296E-10  0.175E-05    3.15     738.4  T

   *** convergence criteria satisfied after 3 iterations ***

         #    Occupation            Energy/Eh            Energy/eV
      -------------------------------------------------------------
         1        2.0000           -0.6912243             -18.8092
       ...           ...                  ...                  ...
        69        2.0000           -0.4018720             -10.9355
        70        2.0000           -0.3996206             -10.8742
        71        2.0000           -0.3970214             -10.8035
        72        2.0000           -0.3950069             -10.7487
        73        2.0000           -0.3896336             -10.6025
        74        2.0000           -0.3589302              -9.7670
        75        2.0000           -0.3412413              -9.2856 (HOMO)
        76                         -0.2256415              -6.1400 (LUMO)
        77                         -0.2062710              -5.6129
        78                         -0.1813689              -4.9353
        79                         -0.1449527              -3.9444
        80                         -0.0950155              -2.5855
       ...                                ...                  ...
       144                          0.6704490              18.2438
      -------------------------------------------------------------
                  HL-Gap            0.1155997 Eh            3.1456 eV
             Fermi-level           -0.2834414 Eh           -7.7128 eV

 SCC (total)                   0 d,  0 h,  0 min,  0.043 sec
 SCC setup                      ...        0 min,  0.000 sec (  0.529%)
 Dispersion                     ...        0 min,  0.000 sec (  0.899%)
 classical contributions        ...        0 min,  0.000 sec (  0.402%)
 integral evaluation            ...        0 min,  0.006 sec ( 14.033%)
 iterations                     ...        0 min,  0.009 sec ( 19.725%)
 molecular gradient             ...        0 min,  0.028 sec ( 63.614%)
 printout                       ...        0 min,  0.000 sec (  0.789%)

         :::::::::::::::::::::::::::::::::::::::::::::::::::::
         ::                     SUMMARY                     ::
         :::::::::::::::::::::::::::::::::::::::::::::::::::::
         :: total energy             -82.313223361237 Eh    ::
         :: gradient norm              0.000873338165 Eh/a0 ::
         :: HOMO-LUMO gap              3.145628292173 eV    ::
         ::.................................................::
         :: SCC energy               -83.388886994369 Eh    ::
         :: -> isotropic ES            0.148395795969 Eh    ::
         :: -> anisotropic ES          0.011456706445 Eh    ::
         :: -> anisotropic XC          0.027066726356 Eh    ::
         :: -> dispersion             -0.061861587202 Eh    ::
         :: repulsion energy           1.074743736928 Eh    ::
         :: add. restraining           0.000244940037 Eh    ::
         :: total charge               0.000000000000 e     ::
         :::::::::::::::::::::::::::::::::::::::::::::::::::::

           -------------------------------------------------
          |                Property Printout                |
           -------------------------------------------------

    * Orbital Energies and Occupations

         #    Occupation            Energy/Eh            Energy/eV
      -------------------------------------------------------------
         1        2.0000           -0.6912243             -18.8092
       ...           ...                  ...                  ...
        63        2.0000           -0.4339687             -11.8089
        64        2.0000           -0.4336251             -11.7995
        65        2.0000           -0.4283665             -11.6564
        66        2.0000           -0.4225763             -11.4989
        67        2.0000           -0.4190014             -11.4016
        68        2.0000           -0.4146560             -11.2834
        69        2.0000           -0.4018720             -10.9355
        70        2.0000           -0.3996206             -10.8742
        71        2.0000           -0.3970214             -10.8035
        72        2.0000           -0.3950069             -10.7487
        73        2.0000           -0.3896336             -10.6025
        74        2.0000           -0.3589302              -9.7670
        75        2.0000           -0.3412413              -9.2856 (HOMO)
        76                         -0.2256415              -6.1400 (LUMO)
        77                         -0.2062710              -5.6129
        78                         -0.1813689              -4.9353
        79                         -0.1449527              -3.9444
        80                         -0.0950155              -2.5855
        81                         -0.0277787              -0.7559
        82                          0.0058171               0.1583
        83                          0.0103923               0.2828
        84                          0.0255546               0.6954
        85                          0.0299965               0.8162
        86                          0.0535225               1.4564
       ...                                ...                  ...
       144                          0.6704490              18.2438
      -------------------------------------------------------------
                  HL-Gap            0.1155997 Eh            3.1456 eV
             Fermi-level           -0.2834414 Eh           -7.7128 eV

     #   Z          covCN         q      C6AA      α(0)
     1   6 C        3.755    -0.117    22.797     6.808
     2   6 C        3.858     0.130    18.439     6.107
     3   8 O        1.638    -0.380    20.478     6.108
     4   6 C        3.755    -0.116    22.781     6.806
     5   6 C        3.861     0.130    18.445     6.108
     6   6 C        3.755    -0.118    22.807     6.810
     7   6 C        3.755    -0.116    22.778     6.805
     8   8 O        1.638    -0.373    20.338     6.088
     9   5 B        2.658     0.438    15.495     6.628
    10   6 C        3.775    -0.068    21.830     6.657
    11   6 C        2.890    -0.039    28.974     8.825
    12   6 C        2.895    -0.040    28.981     8.827
    13   1 H        0.926     0.025     2.660     2.551
    14   6 C        3.863    -0.018    20.850     6.493
    15   1 H        0.924     0.043     2.413     2.429
    16   6 C        2.870    -0.081    30.016     8.981
    17   5 B        2.660     0.432    15.558     6.640
    18   8 O        1.638    -0.370    20.280     6.079
    19   6 C        3.860     0.129    18.455     6.109
    20   6 C        3.755    -0.117    22.795     6.808
    21   6 C        3.755    -0.116    22.773     6.804
    22   6 C        3.859     0.129    18.451     6.109
    23   6 C        3.755    -0.116    22.779     6.805
    24   6 C        3.755    -0.117    22.801     6.809
    25   8 O        1.638    -0.373    20.344     6.088
    26   6 C        2.895    -0.030    28.743     8.790
    27   6 C        3.860    -0.005    20.620     6.458
    28   1 H        0.925     0.042     2.418     2.432
    29   6 C        3.803    -0.016    20.867     6.503
    30   6 C        2.889    -0.035    28.865     8.808
    31   6 C        2.895    -0.036    28.895     8.813
    32   1 H        0.926     0.026     2.642     2.542
    33   1 H        0.925     0.054     2.266     2.354
    34   1 H        0.925     0.040     2.448     2.447
    35   1 H        0.925     0.052     2.299     2.371
    36   1 H        0.925     0.052     2.296     2.369
    37   1 H        0.925     0.044     2.399     2.422
    38   1 H        0.925     0.043     2.410     2.428
    39   1 H        0.925     0.040     2.446     2.446
    40   1 H        0.925     0.053     2.288     2.366
    41   1 H        0.925     0.055     2.257     2.349
    42   1 H        0.925     0.043     2.410     2.428
    43   1 H        0.925     0.053     2.283     2.363
    44   1 H        0.925     0.043     2.406     2.426
    45   1 H        0.925     0.034     2.532     2.488
    46   1 H        0.925     0.054     2.268     2.355
    47   1 H        0.925     0.039     2.458     2.452
    48   1 H        0.925     0.052     2.298     2.370
    49   1 H        0.925     0.052     2.294     2.368
    50   1 H        0.925     0.044     2.403     2.424
    51   1 H        0.925     0.042     2.422     2.434
    52   1 H        0.925     0.042     2.416     2.431
    53   1 H        0.925     0.052     2.296     2.369
    54   1 H        0.925     0.043     2.403     2.424
    55   1 H        0.925     0.040     2.453     2.449
    56   1 H        0.925     0.052     2.296     2.370
    57   1 H        0.925     0.054     2.270     2.356
    58   1 H        0.925     0.036     2.498     2.472
    59   1 H        0.926     0.038     2.470     2.458
    60   1 H        0.925     0.025     2.657     2.549

 Mol. C6AA /au·bohr⁶  :      32802.007023
 Mol. C8AA /au·bohr⁸  :     759469.606952
 Mol. α(0) /au        :        273.165215


Wiberg/Mayer (AO) data.
largest (>0.10) Wiberg bond orders for each atom

 ---------------------------------------------------------------------------
     #   Z sym  total        # sym  WBO       # sym  WBO       # sym  WBO
 ---------------------------------------------------------------------------
     1   6 C    3.994 --     2 C    0.997    34 H    0.984    33 H    0.983
                            35 H    0.982
     2   6 C    3.942 --     1 C    0.997     4 C    0.991     3 O    0.952
                             5 C    0.937
     3   8 O    2.220 --     9 B    1.119     2 C    0.952
     4   6 C    3.994 --     2 C    0.991    38 H    0.984    37 H    0.984
                            36 H    0.983
     5   6 C    3.942 --     6 C    0.997     7 C    0.991     8 O    0.950
                             2 C    0.937
     6   6 C    3.994 --     5 C    0.997    39 H    0.984    41 H    0.982
                            40 H    0.982
     7   6 C    3.995 --     5 C    0.991    42 H    0.984    44 H    0.984
                            43 H    0.983
     8   8 O    2.230 --     9 B    1.130     5 C    0.950
     9   5 B    3.382 --     8 O    1.130     3 O    1.119    10 C    1.012
    10   6 C    3.917 --    11 C    1.103     9 B    1.012    27 C    0.875
                            29 C    0.738
    11   6 C    3.991 --    12 C    1.845    10 C    1.103    45 H    0.961
    12   6 C    3.988 --    11 C    1.845    14 C    0.981    13 H    0.969
    13   1 H    0.999 --    12 C    0.969
    14   6 C    3.995 --    31 C    0.985    12 C    0.981    16 C    0.975
                            15 H    0.973
    15   1 H    0.998 --    14 C    0.973
    16   6 C    3.975 --    26 C    1.809    17 B    1.001    14 C    0.975
    17   5 B    3.375 --    18 O    1.129    25 O    1.127    16 C    1.001
    18   8 O    2.235 --    17 B    1.129    19 C    0.953
    19   6 C    3.943 --    20 C    0.997    21 C    0.990    18 O    0.953
                            22 C    0.937
    20   6 C    3.994 --    19 C    0.997    47 H    0.985    46 H    0.983
                            48 H    0.982
    21   6 C    3.994 --    19 C    0.990    51 H    0.984    50 H    0.984
                            49 H    0.983
    22   6 C    3.943 --    24 C    0.996    23 C    0.990    25 O    0.953
                            19 C    0.937
    23   6 C    3.995 --    22 C    0.990    52 H    0.984    54 H    0.984
                            53 H    0.983
    24   6 C    3.994 --    22 C    0.996    55 H    0.984    57 H    0.983
                            56 H    0.982
    25   8 O    2.231 --    17 B    1.127    22 C    0.953
    26   6 C    3.988 --    16 C    1.809    27 C    1.070    58 H    0.965
    27   6 C    3.969 --    26 C    1.070    28 H    0.969    29 C    0.933
                            10 C    0.875
    28   1 H    0.998 --    27 C    0.969
    29   6 C    3.940 --    30 C    1.122    59 H    0.974    27 C    0.933
                            10 C    0.738
    30   6 C    3.991 --    31 C    1.830    29 C    1.122    60 H    0.963
    31   6 C    3.985 --    30 C    1.830    14 C    0.985    32 H    0.970
    32   1 H    0.999 --    31 C    0.970
    33   1 H    0.997 --     1 C    0.983
    34   1 H    0.998 --     1 C    0.984
    35   1 H    0.997 --     1 C    0.982
    36   1 H    0.997 --     4 C    0.983
    37   1 H    0.998 --     4 C    0.984
    38   1 H    0.998 --     4 C    0.984
    39   1 H    0.998 --     6 C    0.984
    40   1 H    0.997 --     6 C    0.982
    41   1 H    0.997 --     6 C    0.982
    42   1 H    0.998 --     7 C    0.984
    43   1 H    0.997 --     7 C    0.983
    44   1 H    0.998 --     7 C    0.984
    45   1 H    0.999 --    11 C    0.961
    46   1 H    0.997 --    20 C    0.983
    47   1 H    0.998 --    20 C    0.985
    48   1 H    0.997 --    20 C    0.982
    49   1 H    0.997 --    21 C    0.983
    50   1 H    0.998 --    21 C    0.984
    51   1 H    0.998 --    21 C    0.984
    52   1 H    0.998 --    23 C    0.984
    53   1 H    0.997 --    23 C    0.983
    54   1 H    0.998 --    23 C    0.984
    55   1 H    0.998 --    24 C    0.984
    56   1 H    0.997 --    24 C    0.982
    57   1 H    0.997 --    24 C    0.983
    58   1 H    0.998 --    26 C    0.965
    59   1 H    0.998 --    29 C    0.974
    60   1 H    0.999 --    30 C    0.963
 ---------------------------------------------------------------------------

Topologies differ in total number of bonds
Writing topology from bond orders to xtbtopo.mol

molecular dipole:
                 x           y           z       tot (Debye)
 q only:       -0.287      -0.412      -0.122
   full:       -0.322      -0.498      -0.183       1.578
molecular quadrupole (traceless):
                xx          xy          yy          xz          yz          zz
 q only:      -36.408      21.922      55.122     -31.912      -2.983     -18.713
  q+dip:      -42.245      25.206      67.747     -34.542       0.064     -25.501
   full:      -42.084      24.628      68.957     -35.863      -1.279     -26.873

           -------------------------------------------------
          |                Geometry Summary                 |
           -------------------------------------------------

      molecular mass/u    :      382.1099696
   center of mass at/Å    :        2.9473651     -35.9584093      21.8356874
  moments of inertia/u·Å² :        0.1119697E+04   0.6986122E+04   0.7198215E+04
rotational constants/cm⁻¹ :        0.1505554E-01   0.2413017E-02   0.2341918E-02

 * 58 selected distances

     #   Z          #   Z                                           value/Å
     1   6 C        2   6 C                                       1.5268939
     2   6 C        3   8 O                                       1.4282018
     2   6 C        4   6 C                                       1.5338784
     5   6 C        6   6 C                                       1.5265929
     5   6 C        7   6 C                                       1.5338644
     5   6 C        8   8 O                                       1.4283283
     3   8 O        9   5 B                                       1.3702658
     8   8 O        9   5 B                                       1.3663126
     9   5 B       10   6 C                                       1.5557674
    10   6 C       11   6 C                                       1.4566946
    11   6 C       12   6 C                                       1.3311055
    12   6 C       13   1 H                                       1.0801712
    14   6 C       15   1 H                                       1.0920391
    16   6 C       17   5 B                                       1.5597740 (max)
    17   5 B       18   8 O                                       1.3677947
    18   8 O       19   6 C                                       1.4266700
    19   6 C       20   6 C                                       1.5269759
    19   6 C       21   6 C                                       1.5341575
    22   6 C       23   6 C                                       1.5341741
    22   6 C       24   6 C                                       1.5270933
    17   5 B       25   8 O                                       1.3682157
    22   6 C       25   8 O                                       1.4271500
    16   6 C       26   6 C                                       1.3391987
    10   6 C       27   6 C                                       1.5337644
    26   6 C       27   6 C                                       1.4667305
    27   6 C       28   1 H                                       1.0855166
    27   6 C       29   6 C                                       1.5039387
    29   6 C       30   6 C                                       1.4462429
    30   6 C       31   6 C                                       1.3325122
    31   6 C       32   1 H                                       1.0803724
     1   6 C       33   1 H                                       1.0872689
     1   6 C       34   1 H                                       1.0865767
     1   6 C       35   1 H                                       1.0851957
     4   6 C       36   1 H                                       1.0876815
     4   6 C       37   1 H                                       1.0871601
     4   6 C       38   1 H                                       1.0858726
     6   6 C       39   1 H                                       1.0866969
     6   6 C       40   1 H                                       1.0851291
     6   6 C       41   1 H                                       1.0871531
     7   6 C       42   1 H                                       1.0858113
     7   6 C       43   1 H                                       1.0875209
     7   6 C       44   1 H                                       1.0872292
    11   6 C       45   1 H                                       1.0833648
    20   6 C       46   1 H                                       1.0872162
    20   6 C       47   1 H                                       1.0867449
    20   6 C       48   1 H                                       1.0851467
    21   6 C       49   1 H                                       1.0876169
    21   6 C       50   1 H                                       1.0871408
    21   6 C       51   1 H                                       1.0859073
    23   6 C       52   1 H                                       1.0859098
    23   6 C       53   1 H                                       1.0875857
    23   6 C       54   1 H                                       1.0870601
    24   6 C       55   1 H                                       1.0867240
    24   6 C       56   1 H                                       1.0850391
    24   6 C       57   1 H                                       1.0871255
    26   6 C       58   1 H                                       1.0826934
    29   6 C       59   1 H                                       1.0791574 (min)
    30   6 C       60   1 H                                       1.0843996

 * 5 distinct bonds (by element types)

   Z      Z             #   av. dist./Å        max./Å        min./Å
   1 H    6 C          32     1.0858196     1.0920391     1.0791574
   5 B    6 C           2     1.5577707     1.5597740     1.5557674
   6 C    6 C          16     1.4783636     1.5341741     1.3311055
   5 B    8 O           4     1.3681472     1.3702658     1.3663126
   6 C    8 O           4     1.4275875     1.4283283     1.4266700


optimized geometry written to: xtbopt.xyz


           -------------------------------------------------
          | TOTAL ENERGY              -82.313223361237 Eh   |
          | GRADIENT NORM               0.000873338165 Eh/α |
          | HOMO-LUMO GAP               3.145628292173 eV   |
           -------------------------------------------------

------------------------------------------------------------------------
 * finished run on 2022/07/09 at 18:33:43.855     
------------------------------------------------------------------------
 total:
 * wall-time:     0 d,  0 h,  0 min,  1.273 sec
 *  cpu-time:     0 d,  0 h,  0 min,  1.272 sec
 * ratio c/w:     1.000 speedup
 SCF:
 * wall-time:     0 d,  0 h,  0 min,  0.071 sec
 *  cpu-time:     0 d,  0 h,  0 min,  0.071 sec
 * ratio c/w:     1.000 speedup
 ANC optimizer:
 * wall-time:     0 d,  0 h,  0 min,  1.189 sec
 *  cpu-time:     0 d,  0 h,  0 min,  1.189 sec
 * ratio c/w:     1.000 speedup

