      -----------------------------------------------------------      
     |                   =====================                   |     
     |                           x T B                           |     
     |                   =====================                   |     
     |                         S. Grimme                         |     
     |          Mulliken Center for Theoretical Chemistry        |     
     |                    University of Bonn                     |     
      -----------------------------------------------------------      

   * xtb version 6.5.0 (homebrew) compiled by 'nhattrup@GPGGRP-SHANNON.CHEME.CMU.EDU' on 

   xtb is free software: you can redistribute it and/or modify it under
   the terms of the GNU Lesser General Public License as published by
   the Free Software Foundation, either version 3 of the License, or
   (at your option) any later version.
   
   xtb is distributed in the hope that it will be useful,
   but WITHOUT ANY WARRANTY; without even the implied warranty of
   MERCHANTABILITY or FITNESS FOR A PARTICULAR PURPOSE.  See the
   GNU Lesser General Public License for more details.
   
   Cite this work as:
   * C. Bannwarth, E. Caldeweyher, S. Ehlert, A. Hansen, P. Pracht,
     J. Seibert, S. Spicher, S. Grimme, WIREs Comput. Mol. Sci., 2020, 11,
     e01493. DOI: 10.1002/wcms.1493
   
   for GFN2-xTB:
   * C. Bannwarth, S. Ehlert and S. Grimme., J. Chem. Theory Comput., 2019,
     15, 1652-1671. DOI: 10.1021/acs.jctc.8b01176
   for GFN1-xTB:
   * S. Grimme, C. Bannwarth, P. Shushkov, J. Chem. Theory Comput., 2017,
     13, 1989-2009. DOI: 10.1021/acs.jctc.7b00118
   for GFN0-xTB:
   * P. Pracht, E. Caldeweyher, S. Ehlert, S. Grimme, ChemRxiv, 2019, preprint.
     DOI: 10.26434/chemrxiv.8326202.v1
   for GFN-FF:
   * S. Spicher and S. Grimme, Angew. Chem. Int. Ed., 2020, 59, 15665-15673.
     DOI: 10.1002/anie.202004239
   
   for ALPB and GBSA implicit solvation:
   * S. Ehlert, M. Stahn, S. Spicher, S. Grimme, J. Chem. Theory Comput.,
     2021, 17, 4250-4261. DOI: 10.1021/acs.jctc.1c00471
   
   for DFT-D4:
   * E. Caldeweyher, C. Bannwarth and S. Grimme, J. Chem. Phys., 2017,
     147, 034112. DOI: 10.1063/1.4993215
   * E. Caldeweyher, S. Ehlert, A. Hansen, H. Neugebauer, S. Spicher,
     C. Bannwarth and S. Grimme, J. Chem. Phys., 2019, 150, 154122.
     DOI: 10.1063/1.5090222
   * E. Caldeweyher, J.-M. Mewes, S. Ehlert and S. Grimme, Phys. Chem. Chem. Phys.
     2020, 22, 8499-8512. DOI: 10.1039/D0CP00502A
   
   for sTDA-xTB:
   * S. Grimme and C. Bannwarth, J. Chem. Phys., 2016, 145, 054103.
     DOI: 10.1063/1.4959605
   
   in the mass-spec context:
   * V. Asgeirsson, C. Bauer and S. Grimme, Chem. Sci., 2017, 8, 4879.
     DOI: 10.1039/c7sc00601b
   * J. Koopman and S. Grimme, ACS Omega 2019, 4, 12, 15120-15133.
     DOI: 10.1021/acsomega.9b02011
   
   for metadynamics refer to:
   * S. Grimme, J. Chem. Theory Comput., 2019, 155, 2847-2862
     DOI: 10.1021/acs.jctc.9b00143
   
   for SPH calculations refer to:
   * S. Spicher and S. Grimme, J. Chem. Theory Comput., 2021, 17, 1701-1714
     DOI: 10.1021/acs.jctc.0c01306
   
   with help from (in alphabetical order)
   P. Atkinson, C. Bannwarth, F. Bohle, G. Brandenburg, E. Caldeweyher
   M. Checinski, S. Dohm, S. Ehlert, S. Ehrlich, I. Gerasimov, C. Hölzer
   A. Katbashev, J. Koopman, C. Lavigne, S. Lehtola, F. März, M. Müller,
   F. Musil, H. Neugebauer, J. Pisarek, C. Plett, P. Pracht, F. Pultar,
   J. Seibert, P. Shushkov, S. Spicher, M. Stahn, M. Steiner, T. Strunk,
   J. Stückrath, T. Rose, and J. Unsleber
   
 * started run on 2022/07/09 at 18:32:56.770     

           -------------------------------------------------
          |                Calculation Setup                |
           -------------------------------------------------

          program call               : /opt/homebrew/bin/xtb bvl_bpin2_scan_1-2_xtb.xyz --chrg 0 --uhf 0 --opt --input xcontrol_bvl_bpin2_scan_1-2_xtb
          coordinate file            : bvl_bpin2_scan_1-2_xtb.xyz
          omp threads                :                     1

   ID    Z sym.   atoms
    1    6 C      1, 2, 4-7, 10-12, 14, 16, 19-24, 26, 27, 29-31
    2    8 O      3, 8, 18, 25
    3    5 B      9, 17
    4    1 H      13, 15, 28, 32-60
constraining bond 12 31 to    1.6111000 Å, actual value:    1.5017155 Å
constraining bond 10 29 to    2.2778000 Å, actual value:    2.3901239 Å

           -------------------------------------------------
          |                 G F N 2 - x T B                 |
           -------------------------------------------------

        Reference                      10.1021/acs.jctc.8b01176
      * Hamiltonian:
        H0-scaling (s, p, d)           1.850000    2.230000    2.230000
        zeta-weighting                 0.500000
      * Dispersion:
        s8                             2.700000
        a1                             0.520000
        a2                             5.000000
        s9                             5.000000
      * Repulsion:
        kExp                           1.500000    1.000000
        rExp                           1.000000
      * Coulomb:
        alpha                          2.000000
        third order                    shell-resolved
        anisotropic                    true
        a3                             3.000000
        a5                             4.000000
        cn-shift                       1.200000
        cn-exp                         4.000000
        max-rad                        5.000000


          ...................................................
          :                      SETUP                      :
          :.................................................:
          :  # basis functions                 144          :
          :  # atomic orbitals                 144          :
          :  # shells                           88          :
          :  # electrons                       150          :
          :  max. iterations                   250          :
          :  Hamiltonian                  GFN2-xTB          :
          :  restarted?                      false          :
          :  GBSA solvation                  false          :
          :  PC potential                    false          :
          :  electronic temp.          300.0000000     K    :
          :  accuracy                    1.0000000          :
          :  -> integral cutoff          0.2500000E+02      :
          :  -> integral neglect         0.1000000E-07      :
          :  -> SCF convergence          0.1000000E-05 Eh   :
          :  -> wf. convergence          0.1000000E-03 e    :
          :  Broyden damping             0.4000000          :
          ...................................................

 iter      E             dE          RMSdq      gap      omega  full diag
   1    -82.9797781 -0.829798E+02  0.467E+00    3.59       0.0  T
   2    -83.3606150 -0.380837E+00  0.287E+00    3.19       1.0  T
   3    -83.3725651 -0.119501E-01  0.137E+00    3.54       1.0  T
   4    -83.3936095 -0.210444E-01  0.450E-01    3.40       1.0  T
   5    -83.4055366 -0.119271E-01  0.196E-01    3.45       1.0  T
   6    -83.4066216 -0.108506E-02  0.116E-01    3.47       1.0  T
   7    -83.4068935 -0.271818E-03  0.293E-02    3.46       1.0  T
   8    -83.4069160 -0.225508E-04  0.104E-02    3.46       1.2  T
   9    -83.4069180 -0.197573E-05  0.532E-03    3.46       2.4  T
  10    -83.4069186 -0.594210E-06  0.256E-03    3.46       5.0  T
  11    -83.4069187 -0.165151E-06  0.554E-04    3.46      23.3  T
  12    -83.4069188 -0.991710E-08  0.233E-04    3.46      55.4  T

   *** convergence criteria satisfied after 12 iterations ***

         #    Occupation            Energy/Eh            Energy/eV
      -------------------------------------------------------------
         1        2.0000           -0.6879690             -18.7206
       ...           ...                  ...                  ...
        69        2.0000           -0.4059228             -11.0457
        70        2.0000           -0.3985102             -10.8440
        71        2.0000           -0.3967583             -10.7963
        72        2.0000           -0.3959708             -10.7749
        73        2.0000           -0.3877377             -10.5509
        74        2.0000           -0.3546646              -9.6509
        75        2.0000           -0.3487666              -9.4904 (HOMO)
        76                         -0.2217144              -6.0332 (LUMO)
        77                         -0.2136650              -5.8141
        78                         -0.1898906              -5.1672
        79                         -0.1016621              -2.7664
        80                         -0.0936159              -2.5474
       ...                                ...                  ...
       144                          0.6780531              18.4508
      -------------------------------------------------------------
                  HL-Gap            0.1270522 Eh            3.4573 eV
             Fermi-level           -0.2852405 Eh           -7.7618 eV

 SCC (total)                   0 d,  0 h,  0 min,  0.068 sec
 SCC setup                      ...        0 min,  0.000 sec (  0.349%)
 Dispersion                     ...        0 min,  0.000 sec (  0.687%)
 classical contributions        ...        0 min,  0.000 sec (  0.264%)
 integral evaluation            ...        0 min,  0.006 sec (  8.995%)
 iterations                     ...        0 min,  0.033 sec ( 48.283%)
 molecular gradient             ...        0 min,  0.028 sec ( 40.890%)
 printout                       ...        0 min,  0.000 sec (  0.520%)

         :::::::::::::::::::::::::::::::::::::::::::::::::::::
         ::                     SUMMARY                     ::
         :::::::::::::::::::::::::::::::::::::::::::::::::::::
         :: total energy             -82.145961626430 Eh    ::
         :: gradient norm              1.679910733778 Eh/a0 ::
         :: HOMO-LUMO gap              3.457266312577 eV    ::
         ::.................................................::
         :: SCC energy               -83.406918750413 Eh    ::
         :: -> isotropic ES            0.147129379900 Eh    ::
         :: -> anisotropic ES          0.012288427073 Eh    ::
         :: -> anisotropic XC          0.026701371061 Eh    ::
         :: -> dispersion             -0.061271586746 Eh    ::
         :: repulsion energy           1.084608552007 Eh    ::
         :: add. restraining           0.175565259761 Eh    ::
         :: total charge              -0.000000000000 e     ::
         :::::::::::::::::::::::::::::::::::::::::::::::::::::

      ----------------------------------------------------------- 
     |                   =====================                   |
     |                        A N C O P T                        |
     |                   =====================                   |
     |               Approximate Normal Coordinate               |
     |                Rational Function Optimizer                |
      ----------------------------------------------------------- 

          ...................................................
          :                      SETUP                      :
          :.................................................:
          :   optimization level            normal          :
          :   max. optcycles                   200          :
          :   ANC micro-cycles                  20          :
          :   degrees of freedom               174          :
          :.................................................:
          :   RF solver                   davidson          :
          :   write xtbopt.log                true          :
          :   linear?                        false          :
          :   energy convergence         0.5000000E-05 Eh   :
          :   grad. convergence          0.1000000E-02 Eh/α :
          :   maximium RF displ.         1.0000000          :
          :   Hlow (freq-cutoff)         0.1000000E-01      :
          :   Hmax (freq-cutoff)         5.0000000          :
          :   S6 in model hess.         20.0000000          :
          ...................................................

generating ANC from model Hessian ...
Using Lindh-Hessian (1995)
 Shifting diagonal of input Hessian by   0.20060366211051797     
 Lowest  eigenvalues of input Hessian
    0.010000    0.128792    0.000000    0.000000    0.000000    0.000000
    0.000000    0.000000    0.200694    0.200742    0.200854    0.202208
    0.202475    0.203145    0.203896    0.203943    0.205432    0.205781
 Highest eigenvalues
    1.914926    2.090624    2.092422    2.269718    8.940625    9.595625


........................................................................
.............................. CYCLE    1 ..............................
........................................................................
   1    -83.4069188 -0.834069E+02  0.918E-05    3.46       0.0  T
   2    -83.4069188 -0.480725E-09  0.551E-05    3.46     234.4  T
   3    -83.4069188 -0.165699E-09  0.212E-05    3.46     607.9  T
     SCC iter.                  ...        0 min,  0.009 sec
     gradient                   ...        0 min,  0.027 sec
 * total energy  :   -82.1459616 Eh     change       -0.1661093E-08 Eh
   gradient norm :     1.6799106 Eh/α   predicted     0.0000000E+00 (-100.00%)
   displ. norm   :     0.3112242 α      lambda       -0.5161462E+00
   maximum displ.:     0.2241381 α      in ANC's #174, #173, #127, ...

........................................................................
.............................. CYCLE    2 ..............................
........................................................................
   1    -83.3855071 -0.833855E+02  0.299E-01    3.33       0.0  T
   2    -83.3854519  0.551808E-04  0.215E-01    3.33       1.0  T
   3    -83.3853597  0.921223E-04  0.147E-01    3.34       1.0  T
   4    -83.3862025 -0.842737E-03  0.241E-02    3.33       1.0  T
   5    -83.3862340 -0.314850E-04  0.746E-03    3.33       1.7  T
   6    -83.3862362 -0.219390E-05  0.310E-03    3.33       4.2  T
   7    -83.3862362 -0.719035E-07  0.105E-03    3.33      12.3  T
   8    -83.3862363 -0.303746E-07  0.291E-04    3.33      44.4  T
   9    -83.3862363 -0.522292E-09  0.158E-04    3.33      81.5  T
     SCC iter.                  ...        0 min,  0.025 sec
     gradient                   ...        0 min,  0.028 sec
 * total energy  :   -82.2650967 Eh     change       -0.1191350E+00 Eh
   gradient norm :     0.9068540 Eh/α   predicted    -0.2831029E+00 ( 137.63%)
   displ. norm   :     0.1108904 α      lambda       -0.9649152E-01
   maximum displ.:     0.0773901 α      in ANC's #174, #173, #28, ...

........................................................................
.............................. CYCLE    3 ..............................
........................................................................
   1    -83.3959898 -0.833960E+02  0.110E-01    3.41       0.0  T
   2    -83.3959835  0.630821E-05  0.832E-02    3.41       1.0  T
   3    -83.3960474 -0.638575E-04  0.525E-02    3.41       1.0  T
   4    -83.3961213 -0.739591E-04  0.100E-02    3.41       1.3  T
   5    -83.3961261 -0.474267E-05  0.334E-03    3.41       3.9  T
   6    -83.3961266 -0.488278E-06  0.125E-03    3.41      10.3  T
   7    -83.3961266 -0.119327E-07  0.378E-04    3.41      34.2  T
   8    -83.3961266 -0.583647E-08  0.121E-04    3.41     106.6  T
     SCC iter.                  ...        0 min,  0.022 sec
     gradient                   ...        0 min,  0.028 sec
 * total energy  :   -82.3148007 Eh     change       -0.4970407E-01 Eh
   gradient norm :     0.0316920 Eh/α   predicted    -0.4883894E-01 (  -1.74%)
   displ. norm   :     0.0420061 α      lambda       -0.8494133E-03
   maximum displ.:     0.0159146 α      in ANC's #28, #42, #109, ...

........................................................................
.............................. CYCLE    4 ..............................
........................................................................
   1    -83.3967502 -0.833968E+02  0.279E-02    3.41       0.0  T
   2    -83.3967518 -0.164424E-05  0.172E-02    3.41       1.0  T
   3    -83.3967453  0.649497E-05  0.125E-02    3.41       1.0  T
   4    -83.3967533 -0.798971E-05  0.238E-03    3.41       5.4  T
   5    -83.3967536 -0.296441E-06  0.626E-04    3.41      20.6  T
   6    -83.3967536 -0.125384E-07  0.321E-04    3.41      40.2  T
     SCC iter.                  ...        0 min,  0.017 sec
     gradient                   ...        0 min,  0.028 sec
 * total energy  :   -82.3154759 Eh     change       -0.6751682E-03 Eh
   gradient norm :     0.0150457 Eh/α   predicted    -0.4255229E-03 ( -36.98%)
   displ. norm   :     0.1298987 α      lambda       -0.1163049E-02
   maximum displ.:     0.0834743 α      in ANC's #1, #28, #42, ...

........................................................................
.............................. CYCLE    5 ..............................
........................................................................
   1    -83.3967328 -0.833967E+02  0.847E-02    3.41       0.0  T
   2    -83.3967451 -0.122780E-04  0.500E-02    3.41       1.0  T
   3    -83.3967178  0.272970E-04  0.261E-02    3.41       1.0  T
   4    -83.3967482 -0.303417E-04  0.737E-03    3.41       1.8  T
   5    -83.3967515 -0.339240E-05  0.109E-03    3.41      11.8  T
   6    -83.3967516 -0.377965E-07  0.616E-04    3.41      21.0  T
   7    -83.3967516 -0.528085E-08  0.272E-04    3.41      47.5  T
     SCC iter.                  ...        0 min,  0.019 sec
     gradient                   ...        0 min,  0.027 sec
 * total energy  :   -82.3156970 Eh     change       -0.2210822E-03 Eh
   gradient norm :     0.0211214 Eh/α   predicted    -0.5914434E-03 ( 167.52%)
   displ. norm   :     0.3854569 α      lambda       -0.3497279E-02
   maximum displ.:     0.2857980 α      in ANC's #1, #28, #42, ...

........................................................................
.............................. CYCLE    6 ..............................
........................................................................
   1    -83.3922065 -0.833922E+02  0.243E-01    3.41       0.0  T
   2    -83.3923497 -0.143263E-03  0.140E-01    3.41       1.0  T
   3    -83.3921799  0.169874E-03  0.796E-02    3.41       1.0  T
   4    -83.3923881 -0.208284E-03  0.234E-02    3.41       1.0  T
   5    -83.3924232 -0.350627E-04  0.336E-03    3.41       3.8  T
   6    -83.3924235 -0.329727E-06  0.187E-03    3.41       6.9  T
   7    -83.3924236 -0.517179E-07  0.869E-04    3.41      14.9  T
   8    -83.3924236 -0.240220E-07  0.179E-04    3.41      71.9  T
     SCC iter.                  ...        0 min,  0.022 sec
     gradient                   ...        0 min,  0.029 sec
 * total energy  :   -82.3105765 Eh     change        0.5120493E-02 Eh
   gradient norm :     0.0892125 Eh/α   predicted    -0.2008488E-02 (-139.22%)
   displ. norm   :     0.2620540 α      lambda       -0.1151671E-01
   maximum displ.:     0.1869490 α      in ANC's #1, #28, #42, ...

........................................................................
.............................. CYCLE    7 ..............................
........................................................................
   1    -83.3976848 -0.833977E+02  0.171E-01    3.42       0.0  T
   2    -83.3977632 -0.784315E-04  0.998E-02    3.41       1.0  T
   3    -83.3976393  0.123921E-03  0.641E-02    3.42       1.0  T
   4    -83.3977912 -0.151845E-03  0.191E-02    3.41       1.0  T
   5    -83.3978137 -0.225274E-04  0.286E-03    3.41       4.5  T
   6    -83.3978139 -0.264569E-06  0.153E-03    3.41       8.4  T
   7    -83.3978140 -0.442842E-07  0.668E-04    3.41      19.3  T
   8    -83.3978140 -0.119978E-07  0.151E-04    3.41      85.6  T
     SCC iter.                  ...        0 min,  0.022 sec
     gradient                   ...        0 min,  0.028 sec
 * total energy  :   -82.3163289 Eh     change       -0.5752453E-02 Eh
   gradient norm :     0.0337879 Eh/α   predicted    -0.6154203E-02 (   6.98%)
   displ. norm   :     0.0239954 α      lambda       -0.3614675E-03
   maximum displ.:     0.0135253 α      in ANC's #1, #173, #127, ...

........................................................................
.............................. CYCLE    8 ..............................
........................................................................
   1    -83.3981154 -0.833981E+02  0.179E-02    3.41       0.0  T
   2    -83.3981162 -0.746297E-06  0.108E-02    3.41       1.2  T
   3    -83.3981159  0.338912E-06  0.337E-03    3.41       3.8  T
   4    -83.3981162 -0.391298E-06  0.112E-03    3.41      11.5  T
   5    -83.3981163 -0.727698E-07  0.345E-04    3.41      37.4  T
   6    -83.3981163 -0.392967E-08  0.153E-04    3.41      84.5  T
     SCC iter.                  ...        0 min,  0.016 sec
     gradient                   ...        0 min,  0.028 sec
 * total energy  :   -82.3164938 Eh     change       -0.1648628E-03 Eh
   gradient norm :     0.0214226 Eh/α   predicted    -0.1839946E-03 (  11.60%)
   displ. norm   :     0.0371784 α      lambda       -0.1745102E-03
   maximum displ.:     0.0231213 α      in ANC's #28, #29, #36, ...

........................................................................
.............................. CYCLE    9 ..............................
........................................................................
   1    -83.3983142 -0.833983E+02  0.178E-02    3.41       0.0  T
   2    -83.3983144 -0.114520E-06  0.105E-02    3.41       1.2  T
   3    -83.3983132  0.118738E-05  0.470E-03    3.41       2.7  T
   4    -83.3983145 -0.128521E-05  0.705E-04    3.41      18.3  T
   5    -83.3983145 -0.286515E-07  0.231E-04    3.41      55.9  T
   6    -83.3983145 -0.937675E-09  0.140E-04    3.41      92.5  T
     SCC iter.                  ...        0 min,  0.016 sec
     gradient                   ...        0 min,  0.028 sec
 * total energy  :   -82.3166444 Eh     change       -0.1506050E-03 Eh
   gradient norm :     0.0091053 Eh/α   predicted    -0.8738921E-04 ( -41.97%)
   displ. norm   :     0.1636454 α      lambda       -0.5413998E-03
   maximum displ.:     0.1036416 α      in ANC's #28, #29, #36, ...

........................................................................
.............................. CYCLE   10 ..............................
........................................................................
   1    -83.3990704 -0.833991E+02  0.778E-02    3.40       0.0  T
   2    -83.3990723 -0.189567E-05  0.459E-02    3.40       1.0  T
   3    -83.3990697  0.254767E-05  0.820E-03    3.40       1.6  T
   4    -83.3990727 -0.294373E-05  0.176E-03    3.40       7.4  T
   5    -83.3990728 -0.140805E-06  0.943E-04    3.40      13.7  T
   6    -83.3990728 -0.148464E-07  0.475E-04    3.40      27.2  T
     SCC iter.                  ...        0 min,  0.016 sec
     gradient                   ...        0 min,  0.028 sec
 * total energy  :   -82.3169698 Eh     change       -0.3254012E-03 Eh
   gradient norm :     0.0147145 Eh/α   predicted    -0.2779819E-03 ( -14.57%)
   displ. norm   :     0.0626118 α      lambda       -0.1063255E-03
   maximum displ.:     0.0412691 α      in ANC's #28, #29, #32, ...

........................................................................
.............................. CYCLE   11 ..............................
........................................................................
   1    -83.3995330 -0.833995E+02  0.285E-02    3.40       0.0  T
   2    -83.3995333 -0.218754E-06  0.169E-02    3.40       1.0  T
   3    -83.3995323  0.949498E-06  0.407E-03    3.40       3.2  T
   4    -83.3995333 -0.997510E-06  0.996E-04    3.40      13.0  T
   5    -83.3995334 -0.536513E-07  0.278E-04    3.40      46.5  T
     SCC iter.                  ...        0 min,  0.014 sec
     gradient                   ...        0 min,  0.028 sec
 * total energy  :   -82.3170520 Eh     change       -0.8217898E-04 Eh
   gradient norm :     0.0102941 Eh/α   predicted    -0.5338501E-04 ( -35.04%)
   displ. norm   :     0.0815926 α      lambda       -0.1442544E-03
   maximum displ.:     0.0544393 α      in ANC's #28, #29, #8, ...

........................................................................
.............................. CYCLE   12 ..............................
........................................................................
   1    -83.4003275 -0.834003E+02  0.354E-02    3.40       0.0  T
   2    -83.4003278 -0.280592E-06  0.211E-02    3.40       1.0  T
   3    -83.4003237  0.413821E-05  0.831E-03    3.40       1.6  T
   4    -83.4003281 -0.443713E-05  0.939E-04    3.40      13.7  T
   5    -83.4003281 -0.430140E-07  0.336E-04    3.40      38.4  T
   6    -83.4003282 -0.705484E-09  0.166E-04    3.40      77.7  T
     SCC iter.                  ...        0 min,  0.016 sec
     gradient                   ...        0 min,  0.028 sec
 * total energy  :   -82.3171501 Eh     change       -0.9814275E-04 Eh
   gradient norm :     0.0039760 Eh/α   predicted    -0.7260990E-04 ( -26.02%)
   displ. norm   :     0.0515107 α      lambda       -0.7874293E-04
   maximum displ.:     0.0328305 α      in ANC's #28, #8, #14, ...

........................................................................
.............................. CYCLE   13 ..............................
........................................................................
   1    -83.4007550 -0.834008E+02  0.206E-02    3.40       0.0  T
   2    -83.4007551 -0.101701E-06  0.123E-02    3.40       1.1  T
   3    -83.4007535  0.162885E-05  0.532E-03    3.40       2.4  T
   4    -83.4007552 -0.175438E-05  0.566E-04    3.40      22.8  T
   5    -83.4007552 -0.160557E-07  0.250E-04    3.40      51.6  T
   6    -83.4007552 -0.124105E-08  0.127E-04    3.40     101.4  T
     SCC iter.                  ...        0 min,  0.016 sec
     gradient                   ...        0 min,  0.028 sec
 * total energy  :   -82.3172083 Eh     change       -0.5817524E-04 Eh
   gradient norm :     0.0069332 Eh/α   predicted    -0.3949960E-04 ( -32.10%)
   displ. norm   :     0.0541955 α      lambda       -0.7846131E-04
   maximum displ.:     0.0307597 α      in ANC's #28, #8, #42, ...

........................................................................
.............................. CYCLE   14 ..............................
........................................................................
   1    -83.4008080 -0.834008E+02  0.196E-02    3.40       0.0  T
   2    -83.4008082 -0.123881E-06  0.116E-02    3.40       1.1  T
   3    -83.4008073  0.818928E-06  0.396E-03    3.40       3.3  T
   4    -83.4008082 -0.881543E-06  0.696E-04    3.40      18.5  T
   5    -83.4008083 -0.279092E-07  0.278E-04    3.40      46.5  T
     SCC iter.                  ...        0 min,  0.014 sec
     gradient                   ...        0 min,  0.028 sec
 * total energy  :   -82.3172636 Eh     change       -0.5527422E-04 Eh
   gradient norm :     0.0068614 Eh/α   predicted    -0.3935809E-04 ( -28.79%)
   displ. norm   :     0.0422853 α      lambda       -0.5509954E-04
   maximum displ.:     0.0194904 α      in ANC's #28, #8, #42, ...

........................................................................
.............................. CYCLE   15 ..............................
........................................................................
   1    -83.4003803 -0.834004E+02  0.134E-02    3.40       0.0  T
   2    -83.4003803 -0.893086E-07  0.796E-03    3.40       1.6  T
   3    -83.4003802  0.180922E-06  0.208E-03    3.40       6.2  T
   4    -83.4003804 -0.212412E-06  0.399E-04    3.40      32.3  T
   5    -83.4003804 -0.510400E-08  0.201E-04    3.40      64.2  T
     SCC iter.                  ...        0 min,  0.014 sec
     gradient                   ...        0 min,  0.028 sec
 * total energy  :   -82.3173028 Eh     change       -0.3919347E-04 Eh
   gradient norm :     0.0038564 Eh/α   predicted    -0.2760524E-04 ( -29.57%)
   displ. norm   :     0.0344563 α      lambda       -0.4037480E-04
   maximum displ.:     0.0123435 α      in ANC's #8, #28, #37, ...

........................................................................
.............................. CYCLE   16 ..............................
........................................................................
   1    -83.3997037 -0.833997E+02  0.109E-02    3.40       0.0  T
   2    -83.3997037 -0.673120E-07  0.646E-03    3.40       2.0  T
   3    -83.3997035  0.248419E-06  0.229E-03    3.40       5.6  T
   4    -83.3997038 -0.273122E-06  0.480E-04    3.40      26.9  T
   5    -83.3997038 -0.960139E-08  0.195E-04    3.40      66.1  T
     SCC iter.                  ...        0 min,  0.014 sec
     gradient                   ...        0 min,  0.028 sec
 * total energy  :   -82.3173314 Eh     change       -0.2860120E-04 Eh
   gradient norm :     0.0025536 Eh/α   predicted    -0.2021943E-04 ( -29.31%)
   displ. norm   :     0.0313052 α      lambda       -0.3077832E-04
   maximum displ.:     0.0117412 α      in ANC's #8, #28, #29, ...

........................................................................
.............................. CYCLE   17 ..............................
........................................................................
   1    -83.3990484 -0.833990E+02  0.110E-02    3.40       0.0  T
   2    -83.3990485 -0.408473E-07  0.653E-03    3.40       2.0  T
   3    -83.3990483  0.202345E-06  0.204E-03    3.40       6.3  T
   4    -83.3990485 -0.222027E-06  0.352E-04    3.40      36.7  T
   5    -83.3990485 -0.407027E-08  0.174E-04    3.40      74.2  T
     SCC iter.                  ...        0 min,  0.014 sec
     gradient                   ...        0 min,  0.028 sec
 * total energy  :   -82.3173543 Eh     change       -0.2289447E-04 Eh
   gradient norm :     0.0037697 Eh/α   predicted    -0.1540943E-04 ( -32.69%)
   displ. norm   :     0.0401092 α      lambda       -0.3468351E-04
   maximum displ.:     0.0164242 α      in ANC's #29, #28, #8, ...

........................................................................
.............................. CYCLE   18 ..............................
........................................................................
   1    -83.3984216 -0.833984E+02  0.147E-02    3.40       0.0  T
   2    -83.3984216 -0.418782E-07  0.872E-03    3.40       1.5  T
   3    -83.3984215  0.153356E-06  0.177E-03    3.40       7.3  T
   4    -83.3984216 -0.166607E-06  0.404E-04    3.40      31.9  T
   5    -83.3984216 -0.612783E-08  0.194E-04    3.40      66.6  T
     SCC iter.                  ...        0 min,  0.014 sec
     gradient                   ...        0 min,  0.028 sec
 * total energy  :   -82.3173797 Eh     change       -0.2545665E-04 Eh
   gradient norm :     0.0041524 Eh/α   predicted    -0.1737339E-04 ( -31.75%)
   displ. norm   :     0.0493727 α      lambda       -0.3554414E-04
   maximum displ.:     0.0213045 α      in ANC's #28, #8, #29, ...

........................................................................
.............................. CYCLE   19 ..............................
........................................................................
   1    -83.3980091 -0.833980E+02  0.168E-02    3.40       0.0  T
   2    -83.3980092 -0.639036E-07  0.999E-03    3.40       1.3  T
   3    -83.3980091  0.731652E-07  0.130E-03    3.40       9.9  T
   4    -83.3980092 -0.818572E-07  0.439E-04    3.40      29.4  T
   5    -83.3980092 -0.771739E-08  0.223E-04    3.40      57.9  T
     SCC iter.                  ...        0 min,  0.014 sec
     gradient                   ...        0 min,  0.027 sec
 * total energy  :   -82.3174056 Eh     change       -0.2584531E-04 Eh
   gradient norm :     0.0032657 Eh/α   predicted    -0.1782629E-04 ( -31.03%)
   displ. norm   :     0.0508890 α      lambda       -0.3258206E-04
   maximum displ.:     0.0222160 α      in ANC's #28, #8, #29, ...

........................................................................
.............................. CYCLE   20 ..............................
........................................................................
   1    -83.3979395 -0.833979E+02  0.155E-02    3.40       0.0  T
   2    -83.3979396 -0.996557E-07  0.932E-03    3.40       1.4  T
   3    -83.3979393  0.245353E-06  0.229E-03    3.40       5.6  T
   4    -83.3979396 -0.273153E-06  0.440E-04    3.40      29.3  T
   5    -83.3979396 -0.735848E-08  0.184E-04    3.40      70.2  T
     SCC iter.                  ...        0 min,  0.014 sec
     gradient                   ...        0 min,  0.027 sec
 * total energy  :   -82.3174289 Eh     change       -0.2337006E-04 Eh
   gradient norm :     0.0024612 Eh/α   predicted    -0.1633690E-04 ( -30.09%)
   displ. norm   :     0.0453817 α      lambda       -0.2682953E-04
   maximum displ.:     0.0187062 α      in ANC's #28, #8, #29, ...
 * RMSD in coord.:     0.1045911 α      energy gain  -0.1714673E+00 Eh

generating ANC from model Hessian ...
Using Lindh-Hessian (1995)
 Shifting diagonal of input Hessian by    9.9115510742758262E-003
 Lowest  eigenvalues of input Hessian
    0.000000    0.000000    0.000000    0.000000    0.000000    0.000000
    0.010000    0.010042    0.010109    0.010466    0.011205    0.011804
    0.012227    0.013208    0.013236    0.013745    0.015031    0.015121
 Highest eigenvalues
    1.722366    1.889771    1.906574    1.938060    8.723063    9.145850


........................................................................
.............................. CYCLE   21 ..............................
........................................................................
   1    -83.3981235 -0.833981E+02  0.125E-02    3.40       0.0  T
   2    -83.3981236 -0.966576E-07  0.755E-03    3.40       1.7  T
   3    -83.3981232  0.309646E-06  0.260E-03    3.40       5.0  T
   4    -83.3981236 -0.344928E-06  0.398E-04    3.40      32.4  T
   5    -83.3981236 -0.638465E-08  0.154E-04    3.40      84.1  T
     SCC iter.                  ...        0 min,  0.014 sec
     gradient                   ...        0 min,  0.028 sec
 * total energy  :   -82.3174483 Eh     change       -0.1933634E-04 Eh
   gradient norm :     0.0027543 Eh/α   predicted     0.0000000E+00 (-100.00%)
   displ. norm   :     0.0441115 α      lambda        0.1546572E-07
   maximum displ.:     0.0168521 α      in ANC's #10, #4, #6, ...

........................................................................
.............................. CYCLE   22 ..............................
........................................................................
   1    -83.3984500 -0.833984E+02  0.129E-02    3.40       0.0  T
   2    -83.3984500 -0.497366E-07  0.766E-03    3.40       1.7  T
   3    -83.3984500  0.708975E-07  0.129E-03    3.40      10.0  T
   4    -83.3984500 -0.827422E-07  0.368E-04    3.40      35.1  T
   5    -83.3984500 -0.425732E-08  0.189E-04    3.40      68.4  T
     SCC iter.                  ...        0 min,  0.014 sec
     gradient                   ...        0 min,  0.028 sec
 * total energy  :   -82.3174845 Eh     change       -0.3623534E-04 Eh
   gradient norm :     0.0015050 Eh/α   predicted    -0.2417589E-04 ( -33.28%)
   displ. norm   :     0.1234119 α      lambda       -0.4432034E-04
   maximum displ.:     0.0584199 α      in ANC's #4, #6, #10, ...

........................................................................
.............................. CYCLE   23 ..............................
........................................................................
   1    -83.3989859 -0.833990E+02  0.286E-02    3.40       0.0  T
   2    -83.3989861 -0.178596E-06  0.171E-02    3.40       1.0  T
   3    -83.3989858  0.320219E-06  0.259E-03    3.40       5.0  T
   4    -83.3989861 -0.358098E-06  0.801E-04    3.40      16.1  T
   5    -83.3989861 -0.220129E-07  0.399E-04    3.40      32.4  T
     SCC iter.                  ...        0 min,  0.014 sec
     gradient                   ...        0 min,  0.028 sec
 * total energy  :   -82.3175129 Eh     change       -0.2837586E-04 Eh
   gradient norm :     0.0043753 Eh/α   predicted    -0.2231067E-04 ( -21.37%)
   displ. norm   :     0.0326780 α      lambda       -0.1599704E-04
   maximum displ.:     0.0184776 α      in ANC's #4, #1, #6, ...

........................................................................
.............................. CYCLE   24 ..............................
........................................................................
   1    -83.3989004 -0.833989E+02  0.625E-03    3.40       0.0  T
   2    -83.3989004 -0.172101E-08  0.383E-03    3.40       3.4  T
   3    -83.3989001  0.331422E-06  0.237E-03    3.40       5.5  T
   4    -83.3989005 -0.367030E-06  0.216E-04    3.40      59.7  T
   5    -83.3989005 -0.186400E-08  0.972E-05    3.40     132.8  T
     SCC iter.                  ...        0 min,  0.014 sec
     gradient                   ...        0 min,  0.028 sec
 * total energy  :   -82.3175254 Eh     change       -0.1249581E-04 Eh
   gradient norm :     0.0020109 Eh/α   predicted    -0.8010428E-05 ( -35.90%)
   displ. norm   :     0.0802399 α      lambda       -0.2766821E-04
   maximum displ.:     0.0450701 α      in ANC's #4, #1, #6, ...

........................................................................
.............................. CYCLE   25 ..............................
........................................................................
   1    -83.3985619 -0.833986E+02  0.153E-02    3.40       0.0  T
   2    -83.3985619 -0.403197E-07  0.919E-03    3.40       1.4  T
   3    -83.3985614  0.457823E-06  0.270E-03    3.40       4.8  T
   4    -83.3985619 -0.493528E-06  0.421E-04    3.40      30.6  T
   5    -83.3985619 -0.591399E-08  0.211E-04    3.40      61.1  T
     SCC iter.                  ...        0 min,  0.014 sec
     gradient                   ...        0 min,  0.027 sec
 * total energy  :   -82.3175448 Eh     change       -0.1943225E-04 Eh
   gradient norm :     0.0025426 Eh/α   predicted    -0.1393981E-04 ( -28.26%)
   displ. norm   :     0.0818216 α      lambda       -0.1474296E-04
   maximum displ.:     0.0472078 α      in ANC's #4, #1, #6, ...

........................................................................
.............................. CYCLE   26 ..............................
........................................................................
   1    -83.3983006 -0.833983E+02  0.130E-02    3.40       0.0  T
   2    -83.3983006 -0.221133E-07  0.776E-03    3.40       1.7  T
   3    -83.3983006  0.387827E-07  0.967E-04    3.40      13.3  T
   4    -83.3983006 -0.457075E-07  0.289E-04    3.40      44.7  T
     SCC iter.                  ...        0 min,  0.011 sec
     gradient                   ...        0 min,  0.028 sec
 * total energy  :   -82.3175568 Eh     change       -0.1194662E-04 Eh
   gradient norm :     0.0018575 Eh/α   predicted    -0.7421299E-05 ( -37.88%)
   displ. norm   :     0.1395420 α      lambda       -0.1506975E-04
   maximum displ.:     0.0810431 α      in ANC's #4, #1, #6, ...

........................................................................
.............................. CYCLE   27 ..............................
........................................................................
   1    -83.3980848 -0.833981E+02  0.198E-02    3.40       0.0  T
   2    -83.3980848 -0.511669E-07  0.118E-02    3.40       1.1  T
   3    -83.3980848  0.686212E-07  0.124E-03    3.40      10.4  T
   4    -83.3980849 -0.769727E-07  0.541E-04    3.40      23.9  T
   5    -83.3980849 -0.110902E-07  0.242E-04    3.40      53.2  T
     SCC iter.                  ...        0 min,  0.014 sec
     gradient                   ...        0 min,  0.028 sec
 * total energy  :   -82.3175742 Eh     change       -0.1740749E-04 Eh
   gradient norm :     0.0009868 Eh/α   predicted    -0.7603769E-05 ( -56.32%)
   displ. norm   :     0.1203906 α      lambda       -0.1206535E-04
   maximum displ.:     0.0726963 α      in ANC's #1, #4, #2, ...

........................................................................
.............................. CYCLE   28 ..............................
........................................................................
   1    -83.3982412 -0.833982E+02  0.151E-02    3.40       0.0  T
   2    -83.3982412 -0.325033E-07  0.902E-03    3.40       1.4  T
   3    -83.3982411  0.123078E-06  0.147E-03    3.40       8.8  T
   4    -83.3982412 -0.136187E-06  0.395E-04    3.40      32.7  T
   5    -83.3982412 -0.486122E-08  0.188E-04    3.40      68.6  T
     SCC iter.                  ...        0 min,  0.014 sec
     gradient                   ...        0 min,  0.028 sec
 * total energy  :   -82.3175889 Eh     change       -0.1469536E-04 Eh
   gradient norm :     0.0008895 Eh/α   predicted    -0.6072249E-05 ( -58.68%)
   displ. norm   :     0.1297553 α      lambda       -0.1163304E-04
   maximum displ.:     0.0817004 α      in ANC's #1, #4, #2, ...

........................................................................
.............................. CYCLE   29 ..............................
........................................................................
   1    -83.3984303 -0.833984E+02  0.149E-02    3.40       0.0  T
   2    -83.3984303 -0.348509E-07  0.887E-03    3.40       1.5  T
   3    -83.3984303  0.460381E-08  0.572E-04    3.40      22.6  T
   4    -83.3984303 -0.125882E-07  0.317E-04    3.40      40.8  T
     SCC iter.                  ...        0 min,  0.011 sec
     gradient                   ...        0 min,  0.027 sec
 * total energy  :   -82.3176031 Eh     change       -0.1425718E-04 Eh
   gradient norm :     0.0015006 Eh/α   predicted    -0.5861121E-05 ( -58.89%)
   displ. norm   :     0.1457110 α      lambda       -0.1175400E-04
   maximum displ.:     0.0939457 α      in ANC's #1, #4, #2, ...

........................................................................
.............................. CYCLE   30 ..............................
........................................................................
   1    -83.3985804 -0.833986E+02  0.168E-02    3.40       0.0  T
   2    -83.3985805 -0.412373E-07  0.100E-02    3.40       1.3  T
   3    -83.3985805  0.141441E-08  0.573E-04    3.40      22.5  T
   4    -83.3985805 -0.995588E-08  0.336E-04    3.40      38.4  T
     SCC iter.                  ...        0 min,  0.011 sec
     gradient                   ...        0 min,  0.027 sec
 * total energy  :   -82.3176163 Eh     change       -0.1318558E-04 Eh
   gradient norm :     0.0031029 Eh/α   predicted    -0.5934513E-05 ( -54.99%)
   displ. norm   :     0.0968988 α      lambda       -0.1120947E-04
   maximum displ.:     0.0638360 α      in ANC's #1, #4, #2, ...

........................................................................
.............................. CYCLE   31 ..............................
........................................................................
   1    -83.3985842 -0.833986E+02  0.109E-02    3.40       0.0  T
   2    -83.3985843 -0.201525E-07  0.649E-03    3.40       2.0  T
   3    -83.3985841  0.137156E-06  0.147E-03    3.40       8.8  T
   4    -83.3985843 -0.148573E-06  0.252E-04    3.40      51.3  T
   5    -83.3985843 -0.207893E-08  0.126E-04    3.40     102.3  T
     SCC iter.                  ...        0 min,  0.014 sec
     gradient                   ...        0 min,  0.028 sec
 * total energy  :   -82.3176249 Eh     change       -0.8563659E-05 Eh
   gradient norm :     0.0015852 Eh/α   predicted    -0.5658492E-05 ( -33.92%)
   displ. norm   :     0.1231249 α      lambda       -0.7888924E-05
   maximum displ.:     0.0838593 α      in ANC's #1, #4, #2, ...

........................................................................
.............................. CYCLE   32 ..............................
........................................................................
   1    -83.3986294 -0.833986E+02  0.135E-02    3.40       0.0  T
   2    -83.3986294 -0.303969E-07  0.803E-03    3.40       1.6  T
   3    -83.3986293  0.140981E-06  0.152E-03    3.40       8.5  T
   4    -83.3986294 -0.153155E-06  0.315E-04    3.40      40.9  T
   5    -83.3986294 -0.379023E-08  0.150E-04    3.40      85.8  T
     SCC iter.                  ...        0 min,  0.014 sec
     gradient                   ...        0 min,  0.027 sec
 * total energy  :   -82.3176345 Eh     change       -0.9619257E-05 Eh
   gradient norm :     0.0018732 Eh/α   predicted    -0.3974663E-05 ( -58.68%)
   displ. norm   :     0.0860293 α      lambda       -0.6303664E-05
   maximum displ.:     0.0613228 α      in ANC's #1, #2, #4, ...

........................................................................
.............................. CYCLE   33 ..............................
........................................................................
   1    -83.3986460 -0.833986E+02  0.988E-03    3.40       0.0  T
   2    -83.3986460 -0.146947E-07  0.586E-03    3.40       2.2  T
   3    -83.3986460  0.776521E-08  0.483E-04    3.40      26.7  T
   4    -83.3986460 -0.105355E-07  0.206E-04    3.40      62.8  T
     SCC iter.                  ...        0 min,  0.011 sec
     gradient                   ...        0 min,  0.028 sec
 * total energy  :   -82.3176427 Eh     change       -0.8185069E-05 Eh
   gradient norm :     0.0003725 Eh/α   predicted    -0.3162694E-05 ( -61.36%)
   displ. norm   :     0.0918462 α      lambda       -0.7193707E-05
   maximum displ.:     0.0648721 α      in ANC's #1, #2, #6, ...

........................................................................
.............................. CYCLE   34 ..............................
........................................................................
   1    -83.3986257 -0.833986E+02  0.113E-02    3.40       0.0  T
   2    -83.3986257 -0.144734E-07  0.669E-03    3.40       1.9  T
   3    -83.3986257  0.136087E-07  0.626E-04    3.40      20.6  T
   4    -83.3986257 -0.178648E-07  0.239E-04    3.40      54.0  T
     SCC iter.                  ...        0 min,  0.011 sec
     gradient                   ...        0 min,  0.028 sec
 * total energy  :   -82.3176521 Eh     change       -0.9387788E-05 Eh
   gradient norm :     0.0008034 Eh/α   predicted    -0.3610911E-05 ( -61.54%)
   displ. norm   :     0.1116030 α      lambda       -0.8104874E-05
   maximum displ.:     0.0772322 α      in ANC's #1, #2, #6, ...

........................................................................
.............................. CYCLE   35 ..............................
........................................................................
   1    -83.3985615 -0.833986E+02  0.140E-02    3.40       0.0  T
   2    -83.3985615 -0.233358E-07  0.830E-03    3.40       1.6  T
   3    -83.3985613  0.153971E-06  0.161E-03    3.40       8.0  T
   4    -83.3985615 -0.168652E-06  0.320E-04    3.40      40.3  T
   5    -83.3985615 -0.280357E-08  0.157E-04    3.40      82.2  T
     SCC iter.                  ...        0 min,  0.014 sec
     gradient                   ...        0 min,  0.027 sec
 * total energy  :   -82.3176620 Eh     change       -0.9935792E-05 Eh
   gradient norm :     0.0007862 Eh/α   predicted    -0.4075782E-05 ( -58.98%)
   displ. norm   :     0.1017515 α      lambda       -0.5968680E-05
   maximum displ.:     0.0709494 α      in ANC's #1, #2, #6, ...

........................................................................
.............................. CYCLE   36 ..............................
........................................................................
   1    -83.3985564 -0.833986E+02  0.124E-02    3.40       0.0  T
   2    -83.3985564 -0.172537E-07  0.737E-03    3.40       1.8  T
   3    -83.3985562  0.206940E-06  0.187E-03    3.40       6.9  T
   4    -83.3985565 -0.224701E-06  0.294E-04    3.40      44.0  T
   5    -83.3985565 -0.175426E-08  0.177E-04    3.40      73.0  T
     SCC iter.                  ...        0 min,  0.014 sec
     gradient                   ...        0 min,  0.028 sec
 * total energy  :   -82.3176691 Eh     change       -0.7070007E-05 Eh
   gradient norm :     0.0009082 Eh/α   predicted    -0.3000310E-05 ( -57.56%)
   displ. norm   :     0.0709555 α      lambda       -0.3626325E-05
   maximum displ.:     0.0511971 α      in ANC's #1, #2, #6, ...

........................................................................
.............................. CYCLE   37 ..............................
........................................................................
   1    -83.3985759 -0.833986E+02  0.799E-03    3.40       0.0  T
   2    -83.3985759 -0.661565E-08  0.478E-03    3.40       2.7  T
   3    -83.3985758  0.734028E-07  0.110E-03    3.40      11.8  T
   4    -83.3985759 -0.798244E-07  0.179E-04    3.40      72.3  T
   5    -83.3985759 -0.576122E-09  0.100E-04    3.40     128.6  T
     SCC iter.                  ...        0 min,  0.014 sec
     gradient                   ...        0 min,  0.028 sec
 * total energy  :   -82.3176737 Eh     change       -0.4635096E-05 Eh
   gradient norm :     0.0004632 Eh/α   predicted    -0.1818232E-05 ( -60.77%)
   displ. norm   :     0.0530110 α      lambda       -0.2974402E-05
   maximum displ.:     0.0392130 α      in ANC's #1, #2, #5, ...

   *** GEOMETRY OPTIMIZATION CONVERGED AFTER 37 ITERATIONS ***

------------------------------------------------------------------------
 total energy gain   :        -0.1717121 Eh     -107.7510 kcal/mol
 total RMSD          :         0.2160305 a0        0.1143 Å
 total power (kW/mol):       -12.1845941 (step) -235.1345 (real)
------------------------------------------------------------------------

 ANCopt (total)                0 d,  0 h,  0 min,  1.917 sec
 optimizer setup                ...        0 min,  0.000 sec (  0.005%)
 model hessian                  ...        0 min,  0.063 sec (  3.280%)
 ANC generation                 ...        0 min,  0.005 sec (  0.280%)
 coordinate transformation      ...        0 min,  0.001 sec (  0.028%)
 single point calculation       ...        0 min,  1.835 sec ( 95.696%)
 optimization log               ...        0 min,  0.008 sec (  0.432%)
 hessian update                 ...        0 min,  0.001 sec (  0.045%)
 rational function              ...        0 min,  0.003 sec (  0.155%)

================
 final structure:
================
60
 xtb: 6.5.0 (homebrew)
C            3.29753322635269      -38.04014843178717       16.14103263739575
C            3.61008413439474      -38.25740835550006       17.61997050367416
O            3.20958904168393      -37.10941947930147       18.36522926520691
C            2.77842619858894      -39.43680891937878       18.14050528239664
C            5.13920642146132      -38.38845092948406       17.96198071981954
C            5.62519466511296      -39.81588476817736       18.20367463024148
C            6.04394842403201      -37.72064115599135       16.91850945739131
O            5.26805998982072      -37.63306665121164       19.16581717185199
B            4.16144687247219      -36.84172825729229       19.31104159851288
C            3.99513119483216      -35.77065585925165       20.42987721925907
C            5.01763175211964      -35.53818923795738       21.27645714744450
C            5.09618333590674      -34.55289209243058       22.33268032216622
H            6.03646856464230      -34.53524389780632       22.86780034561657
C            3.90485348690649      -34.01471422251085       23.09574485199592
H            4.13385955082934      -33.72272031295332       24.11483085923641
C            2.56507389572264      -34.63581762179989       23.00176010539347
B            1.77728865104144      -34.82159098185224       24.33786801184686
O            2.26163632674136      -34.45587881727164       25.56419230228548
C            1.38173723201579      -34.95465933146503       26.57137961857672
C            1.21644544043999      -33.90756873869544       27.67017959517668
C            2.04841517258219      -36.20321627081699       27.16315785825206
C            0.07283540918721      -35.28561583547641       25.76652365311256
C           -0.94909981218543      -34.14207567413085       25.79354601173898
C           -0.61988585900373      -36.58551372453227       26.16942438496242
O            0.53971296298140      -35.39367472861850       24.42194436489204
C            2.04130432180115      -35.07369916562131       21.85293237477333
C            2.68504239879737      -35.03208918206288       20.50415417052364
H            2.00155025542502      -35.45790416072970       19.76850682603668
C            3.14465049127325      -33.69103812576373       20.04455029222254
C            3.90770468106071      -32.84746047536886       20.74152741190089
C            4.48004707413404      -33.09387801196168       22.05322499618371
H            5.09067766471957      -32.28729216179099       22.43804354600645
H            2.21928605411651      -37.98389944713298       16.01333160786901
H            3.67855581027710      -38.86910808388276       15.55074520282727
H            3.72740914155482      -37.11087478666985       15.78153488264466
H            1.72475158561001      -39.19698096657140       18.01673997235478
H            2.96516414844536      -39.58882097030526       19.20063804032719
H            3.00066097266368      -40.34731124421832       17.59216894421045
H            5.46017634367329      -40.42457976920178       17.31874693421712
H            5.11943343861647      -40.26405802692605       19.05261259109890
H            6.69010779164974      -39.79207899650956       18.42126130534506
H            6.02848720060957      -38.26395532347968       15.97851117412455
H            7.06113739162870      -37.70673918321849       17.30322795897901
H            5.73346571664697      -36.69163991240885       16.75569734127322
H            5.92620871130996      -36.10336890036993       21.10856363582901
H            2.17254816353233      -33.76573408516459       28.16796053373752
H            0.48591276280425      -34.24325318022111       28.40124896463967
H            0.90621608811581      -32.95232834622784       27.25946141983372
H            3.02372712091054      -35.92163967022817       27.55363637394806
H            2.20053437698167      -36.94988186537215       26.38776532080571
H            1.45299065897963      -36.62312593617925       27.96823614440380
H           -1.38237082151880      -34.02539351598266       26.78238804798286
H           -1.74085540869632      -34.37085988374959       25.08396564909908
H           -0.48001690006123      -33.21175465406778       25.48333805044183
H           -0.89843483368652      -36.55414343395366       27.21929412057461
H            0.02043155109774      -37.44274228973674       25.98865569571077
H           -1.51893489778688      -36.70508953116219       25.57003567117369
H            1.05952547398140      -35.52508091850813       21.89265055478620
H            2.84845227777650      -33.40649935529991       19.04311386112699
H            4.21640691488456      -31.91906214425759       20.27620246453718

 Bond Distances (Angstroems)
 ---------------------------
C1-C2=1.5271         C1-H33=1.0872        C1-H34=1.0866        C1-H35=1.0852        C2-C1=1.5271         C2-O3=1.4261         
C2-C4=1.5341         C2-C5=1.5724         O3-C2=1.4261         O3-B9=1.3683         C4-C2=1.5341         C4-H36=1.0877        
C4-H37=1.0871        C4-H38=1.0859        C5-C2=1.5724         C5-C6=1.5271         C5-C7=1.5341         C5-O8=1.4270         
C6-C5=1.5271         C6-H39=1.0867        C6-H40=1.0851        C6-H41=1.0872        C7-C5=1.5341         C7-H42=1.0858        
C7-H43=1.0876        C7-H44=1.0871        O8-C5=1.4270         O8-B9=1.3682         B9-O3=1.3683         B9-O8=1.3682         
B9-C10=1.5578        C10-B9=1.5578        C10-C11=1.3477       C10-C27=1.5058       C11-C10=1.3477       C11-C12=1.4466       
C11-H45=1.0831       C12-C11=1.4466       C12-H13=1.0820       C12-C14=1.5137       C12-C31=1.6082       H13-C12=1.0820       
C14-C12=1.5137       C14-H15=1.0845       C14-C16=1.4797       C14-C31=1.5052       H15-C14=1.0845       C16-C14=1.4797       
C16-B17=1.5621       C16-C26=1.3364       B17-C16=1.5621       B17-O18=1.3683       B17-O25=1.3660       O18-B17=1.3683       
O18-C19=1.4274       C19-O18=1.4274       C19-C20=1.5268       C19-C21=1.5341       C19-C22=1.5718       C20-C19=1.5268       
C20-H46=1.0872       C20-H47=1.0867       C20-H48=1.0851       C21-C19=1.5341       C21-H49=1.0877       C21-H50=1.0871       
C21-H51=1.0858       C22-C19=1.5718       C22-C23=1.5339       C22-C24=1.5271       C22-O25=1.4274       C23-C22=1.5339       
C23-H52=1.0859       C23-H53=1.0875       C23-H54=1.0871       C24-C22=1.5271       C24-H55=1.0866       C24-H56=1.0851       
C24-H57=1.0871       O25-B17=1.3660       O25-C22=1.4274       C26-C16=1.3364       C26-C27=1.4951       C26-H58=1.0813       
C27-C10=1.5058       C27-C26=1.4951       C27-H28=1.0907       C27-C29=1.4903       H28-C27=1.0907       C29-C27=1.4903       
C29-C30=1.3340       C29-H59=1.0824       C30-C29=1.3340       C30-C31=1.4522       C30-H60=1.0834       C31-C12=1.6082       
C31-C14=1.5052       C31-C30=1.4522       C31-H32=1.0824       H32-C31=1.0824       H33-C1=1.0872        H34-C1=1.0866        
H35-C1=1.0852        H36-C4=1.0877        H37-C4=1.0871        H38-C4=1.0859        H39-C6=1.0867        H40-C6=1.0851        
H41-C6=1.0872        H42-C7=1.0858        H43-C7=1.0876        H44-C7=1.0871        H45-C11=1.0831       H46-C20=1.0872       
H47-C20=1.0867       H48-C20=1.0851       H49-C21=1.0877       H50-C21=1.0871       H51-C21=1.0858       H52-C23=1.0859       
H53-C23=1.0875       H54-C23=1.0871       H55-C24=1.0866       H56-C24=1.0851       H57-C24=1.0871       H58-C26=1.0813       
H59-C29=1.0824       H60-C30=1.0834       
 C  H  Rav=1.0859 sigma=0.0020  Rmin=1.0813  Rmax=1.0907    32
 C  B  Rav=1.5600 sigma=0.0022  Rmin=1.5578  Rmax=1.5621     2
 C  C  Rav=1.4956 sigma=0.0716  Rmin=1.3340  Rmax=1.6082    22
 O  B  Rav=1.3677 sigma=0.0010  Rmin=1.3660  Rmax=1.3683     4
 O  C  Rav=1.4270 sigma=0.0005  Rmin=1.4261  Rmax=1.4274     4

 selected bond angles (degree)
 --------------------
H33-C1-C2=108.91               H34-C1-C2=110.23               H34-C1-H33=108.87              H35-C1-C2=111.20               
H35-C1-H33=108.04              H35-C1-H34=109.54              O3-C2-C1=109.52                C4-C2-C1=109.09                
C4-C2-O3=106.82                C5-C2-C1=114.93                C5-C2-O3=103.09                C5-C2-C4=112.91                
B9-O3-C2=108.87                H36-C4-C2=108.48               H37-C4-C2=110.20               H37-C4-H36=107.95              
H38-C4-C2=111.24               H38-C4-H36=109.01              H38-C4-H37=109.88              C6-C5-C2=114.95                
C7-C5-C2=112.91                C7-C5-C6=109.08                O8-C5-C2=103.13                O8-C5-C6=109.42                
O8-C5-C7=106.87                H39-C6-C5=110.27               H40-C6-C5=111.20               H40-C6-H39=109.57              
H41-C6-C5=108.84               H41-C6-H39=108.90              H41-C6-H40=108.00              H42-C7-C5=111.26               
H43-C7-C5=108.45               H43-C7-H42=109.02              H44-C7-C5=110.21               H44-C7-H42=109.87              
H44-C7-H43=107.94              B9-O8-C5=108.82                O8-B9-O3=112.09                C10-B9-O3=123.83               
C10-B9-O8=124.07               C11-C10-B9=119.26              C27-C10-B9=117.75              C27-C10-C11=122.99             

 selected dihedral angles (degree)
 ---------------------------------
O3-C2-C1-H33=294.31           O3-C2-C1-H34=174.93           O3-C2-C1-H35= 53.25           C4-C2-C1-H33= 50.89           
C4-C2-C1-H34=291.51           C4-C2-C1-H35=169.83           C5-C2-C1-H33=178.85           C5-C2-C1-H34= 59.47           
C5-C2-C1-H35=297.79           B9-O3-C2-C1=220.73            B9-O3-C2-C4=102.72            B9-O3-C2-C5=343.52            
H36-C4-C2-C1=299.66           H36-C4-C2-O3= 57.95           H36-C4-C2-C5=170.57           H37-C4-C2-C1=181.68           
H37-C4-C2-O3=299.96           H37-C4-C2-C5= 52.59           H38-C4-C2-C1= 59.55           H38-C4-C2-O3=177.84           
H38-C4-C2-C5=290.46           C6-C5-C2-C1=257.81            C6-C5-C2-O3=138.71            C6-C5-C2-C4= 23.83            
C7-C5-C2-C1= 23.83            C7-C5-C2-O3=264.73            C7-C5-C2-C4=149.84            O8-C5-C2-C1=138.79            
O8-C5-C2-O3= 19.69            O8-C5-C2-C4=264.81            H39-C6-C5-C2= 60.08           H39-C6-C5-C7=292.11           
H39-C6-C5-O8=175.53           H40-C6-C5-C2=298.33           H40-C6-C5-C7=170.36           H40-C6-C5-O8= 53.78           
H41-C6-C5-C2=179.48           H41-C6-C5-C7= 51.51           H41-C6-C5-O8=294.93           H42-C7-C5-C2=290.57           
H42-C7-C5-C6= 59.68           H42-C7-C5-O8=177.87           H43-C7-C5-C2=170.67           H43-C7-C5-C6=299.77           
H43-C7-C5-O8= 57.97           H44-C7-C5-C2= 52.71           H44-C7-C5-C6=181.81           H44-C7-C5-O8=300.01           
B9-O8-C5-C2=343.76            B9-O8-C5-C6=220.98            B9-O8-C5-C7=103.00            O8-B9-O3-C2=  7.21            
C10-B9-O3-C2=187.80           O3-B9-O8-C5=  6.79            C10-B9-O8-C5=186.20           C11-C10-B9-O3=183.11          
C11-C10-B9-O8=  3.77          C27-C10-B9-O3=  2.70          C27-C10-B9-O8=183.36          
           -------------------------------------------------
          |                Final Singlepoint                |
           -------------------------------------------------

          ...................................................
          :                      SETUP                      :
          :.................................................:
          :  # basis functions                 144          :
          :  # atomic orbitals                 144          :
          :  # shells                           88          :
          :  # electrons                       150          :
          :  max. iterations                   250          :
          :  Hamiltonian                  GFN2-xTB          :
          :  restarted?                      false          :
          :  GBSA solvation                  false          :
          :  PC potential                    false          :
          :  electronic temp.          300.0000000     K    :
          :  accuracy                    1.0000000          :
          :  -> integral cutoff          0.2500000E+02      :
          :  -> integral neglect         0.1000000E-07      :
          :  -> SCF convergence          0.1000000E-05 Eh   :
          :  -> wf. convergence          0.1000000E-03 e    :
          :  Broyden damping             0.4000000          :
          ...................................................

 iter      E             dE          RMSdq      gap      omega  full diag
   1    -83.3985759 -0.833986E+02  0.492E-05    3.40       0.0  T
   2    -83.3985759 -0.129035E-10  0.396E-05    3.40     326.0  T
   3    -83.3985759 -0.594156E-10  0.176E-05    3.40     735.5  T

   *** convergence criteria satisfied after 3 iterations ***

         #    Occupation            Energy/Eh            Energy/eV
      -------------------------------------------------------------
         1        2.0000           -0.6878951             -18.7186
       ...           ...                  ...                  ...
        69        2.0000           -0.4067203             -11.0674
        70        2.0000           -0.3978407             -10.8258
        71        2.0000           -0.3961207             -10.7790
        72        2.0000           -0.3957032             -10.7676
        73        2.0000           -0.3867198             -10.5232
        74        2.0000           -0.3532888              -9.6135
        75        2.0000           -0.3479557              -9.4684 (HOMO)
        76                         -0.2230358              -6.0691 (LUMO)
        77                         -0.2130197              -5.7966
        78                         -0.1885005              -5.1294
        79                         -0.1026773              -2.7940
        80                         -0.0936208              -2.5476
       ...                                ...                  ...
       144                          0.6837579              18.6060
      -------------------------------------------------------------
                  HL-Gap            0.1249199 Eh            3.3992 eV
             Fermi-level           -0.2854957 Eh           -7.7687 eV

 SCC (total)                   0 d,  0 h,  0 min,  0.043 sec
 SCC setup                      ...        0 min,  0.000 sec (  0.520%)
 Dispersion                     ...        0 min,  0.000 sec (  0.884%)
 classical contributions        ...        0 min,  0.000 sec (  0.401%)
 integral evaluation            ...        0 min,  0.006 sec ( 13.912%)
 iterations                     ...        0 min,  0.009 sec ( 19.811%)
 molecular gradient             ...        0 min,  0.028 sec ( 63.680%)
 printout                       ...        0 min,  0.000 sec (  0.781%)

         :::::::::::::::::::::::::::::::::::::::::::::::::::::
         ::                     SUMMARY                     ::
         :::::::::::::::::::::::::::::::::::::::::::::::::::::
         :: total energy             -82.317673698148 Eh    ::
         :: gradient norm              0.000463355549 Eh/a0 ::
         :: HOMO-LUMO gap              3.399242675578 eV    ::
         ::.................................................::
         :: SCC energy               -83.398575873024 Eh    ::
         :: -> isotropic ES            0.147245183194 Eh    ::
         :: -> anisotropic ES          0.012274206828 Eh    ::
         :: -> anisotropic XC          0.026722092620 Eh    ::
         :: -> dispersion             -0.061390029028 Eh    ::
         :: repulsion energy           1.080065849430 Eh    ::
         :: add. restraining           0.000081649852 Eh    ::
         :: total charge               0.000000000000 e     ::
         :::::::::::::::::::::::::::::::::::::::::::::::::::::

           -------------------------------------------------
          |                Property Printout                |
           -------------------------------------------------

    * Orbital Energies and Occupations

         #    Occupation            Energy/Eh            Energy/eV
      -------------------------------------------------------------
         1        2.0000           -0.6878951             -18.7186
       ...           ...                  ...                  ...
        63        2.0000           -0.4368976             -11.8886
        64        2.0000           -0.4335770             -11.7982
        65        2.0000           -0.4275848             -11.6352
        66        2.0000           -0.4195841             -11.4175
        67        2.0000           -0.4193166             -11.4102
        68        2.0000           -0.4128341             -11.2338
        69        2.0000           -0.4067203             -11.0674
        70        2.0000           -0.3978407             -10.8258
        71        2.0000           -0.3961207             -10.7790
        72        2.0000           -0.3957032             -10.7676
        73        2.0000           -0.3867198             -10.5232
        74        2.0000           -0.3532888              -9.6135
        75        2.0000           -0.3479557              -9.4684 (HOMO)
        76                         -0.2230358              -6.0691 (LUMO)
        77                         -0.2130197              -5.7966
        78                         -0.1885005              -5.1294
        79                         -0.1026773              -2.7940
        80                         -0.0936208              -2.5476
        81                         -0.0057737              -0.1571
        82                          0.0086671               0.2358
        83                          0.0111223               0.3027
        84                          0.0287194               0.7815
        85                          0.0300420               0.8175
        86                          0.0569968               1.5510
       ...                                ...                  ...
       144                          0.6837579              18.6060
      -------------------------------------------------------------
                  HL-Gap            0.1249199 Eh            3.3992 eV
             Fermi-level           -0.2854957 Eh           -7.7687 eV

     #   Z          covCN         q      C6AA      α(0)
     1   6 C        3.755    -0.117    22.793     6.807
     2   6 C        3.859     0.129    18.454     6.109
     3   8 O        1.638    -0.372    20.319     6.085
     4   6 C        3.755    -0.116    22.773     6.804
     5   6 C        3.859     0.129    18.450     6.109
     6   6 C        3.755    -0.117    22.801     6.809
     7   6 C        3.755    -0.116    22.774     6.805
     8   8 O        1.638    -0.374    20.363     6.091
     9   5 B        2.660     0.432    15.563     6.641
    10   6 C        2.932    -0.083    30.068     8.993
    11   6 C        2.895    -0.034    28.850     8.806
    12   6 C        3.847    -0.016    20.826     6.491
    13   1 H        0.925     0.031     2.572     2.508
    14   6 C        3.864    -0.015    20.793     6.485
    15   1 H        0.925     0.043     2.409     2.427
    16   6 C        2.863    -0.085    30.124     8.996
    17   5 B        2.662     0.432    15.549     6.637
    18   8 O        1.638    -0.374    20.352     6.090
    19   6 C        3.860     0.129    18.453     6.109
    20   6 C        3.755    -0.117    22.800     6.808
    21   6 C        3.755    -0.116    22.780     6.805
    22   6 C        3.860     0.129    18.455     6.109
    23   6 C        3.755    -0.116    22.785     6.806
    24   6 C        3.755    -0.118    22.806     6.809
    25   8 O        1.638    -0.370    20.291     6.080
    26   6 C        2.899    -0.027    28.684     8.781
    27   6 C        3.865    -0.015    20.793     6.484
    28   1 H        0.924     0.045     2.387     2.416
    29   6 C        2.959    -0.031    28.766     8.797
    30   6 C        2.889    -0.043    29.054     8.837
    31   6 C        3.849    -0.014    20.787     6.485
    32   1 H        0.925     0.031     2.577     2.510
    33   1 H        0.925     0.054     2.270     2.356
    34   1 H        0.925     0.039     2.460     2.453
    35   1 H        0.925     0.052     2.301     2.372
    36   1 H        0.925     0.052     2.295     2.369
    37   1 H        0.925     0.043     2.405     2.425
    38   1 H        0.925     0.042     2.424     2.435
    39   1 H        0.925     0.040     2.454     2.450
    40   1 H        0.925     0.052     2.298     2.371
    41   1 H        0.925     0.054     2.270     2.356
    42   1 H        0.925     0.042     2.418     2.432
    43   1 H        0.925     0.052     2.298     2.371
    44   1 H        0.925     0.043     2.404     2.425
    45   1 H        0.925     0.035     2.514     2.480
    46   1 H        0.925     0.054     2.268     2.355
    47   1 H        0.925     0.040     2.451     2.448
    48   1 H        0.925     0.052     2.294     2.368
    49   1 H        0.925     0.052     2.295     2.369
    50   1 H        0.925     0.044     2.400     2.423
    51   1 H        0.925     0.043     2.415     2.430
    52   1 H        0.925     0.043     2.412     2.429
    53   1 H        0.925     0.053     2.286     2.364
    54   1 H        0.925     0.044     2.398     2.422
    55   1 H        0.925     0.040     2.449     2.447
    56   1 H        0.925     0.052     2.293     2.368
    57   1 H        0.925     0.055     2.262     2.352
    58   1 H        0.925     0.037     2.495     2.470
    59   1 H        0.925     0.025     2.661     2.551
    60   1 H        0.925     0.023     2.688     2.564

 Mol. C6AA /au·bohr⁶  :      32804.290583
 Mol. C8AA /au·bohr⁸  :     759508.850060
 Mol. α(0) /au        :        273.186344


Wiberg/Mayer (AO) data.
largest (>0.10) Wiberg bond orders for each atom

 ---------------------------------------------------------------------------
     #   Z sym  total        # sym  WBO       # sym  WBO       # sym  WBO
 ---------------------------------------------------------------------------
     1   6 C    3.994 --     2 C    0.997    34 H    0.985    33 H    0.983
                            35 H    0.982
     2   6 C    3.944 --     1 C    0.997     4 C    0.990     3 O    0.954
                             5 C    0.936
     3   8 O    2.231 --     9 B    1.125     2 C    0.954
     4   6 C    3.994 --     2 C    0.990    38 H    0.985    37 H    0.984
                            36 H    0.983
     5   6 C    3.942 --     6 C    0.996     7 C    0.991     8 O    0.953
                             2 C    0.936
     6   6 C    3.994 --     5 C    0.996    39 H    0.985    41 H    0.983
                            40 H    0.982
     7   6 C    3.995 --     5 C    0.991    42 H    0.984    44 H    0.984
                            43 H    0.983
     8   8 O    2.229 --     9 B    1.125     5 C    0.953
     9   5 B    3.378 --     3 O    1.125     8 O    1.125    10 C    1.006
    10   6 C    3.972 --    11 C    1.742     9 B    1.006    27 C    0.956
    11   6 C    3.989 --    10 C    1.742    12 C    1.132    45 H    0.964
    12   6 C    3.946 --    11 C    1.132    13 H    0.973    14 C    0.905
                            31 C    0.800
    13   1 H    0.999 --    12 C    0.973
    14   6 C    3.956 --    16 C    1.039    15 H    0.969    31 C    0.926
                            12 C    0.905
    15   1 H    0.998 --    14 C    0.969
    16   6 C    3.978 --    26 C    1.822    14 C    1.039    17 B    0.997
    17   5 B    3.375 --    25 O    1.133    18 O    1.127    16 C    0.997
    18   8 O    2.231 --    17 B    1.127    19 C    0.952
    19   6 C    3.943 --    20 C    0.997    21 C    0.991    18 O    0.952
                            22 C    0.937
    20   6 C    3.994 --    19 C    0.997    47 H    0.984    46 H    0.983
                            48 H    0.982
    21   6 C    3.994 --    19 C    0.991    51 H    0.984    50 H    0.984
                            49 H    0.983
    22   6 C    3.942 --    24 C    0.996    23 C    0.991    25 O    0.952
                            19 C    0.937
    23   6 C    3.995 --    22 C    0.991    52 H    0.984    54 H    0.984
                            53 H    0.983
    24   6 C    3.994 --    22 C    0.996    55 H    0.984    57 H    0.983
                            56 H    0.982
    25   8 O    2.236 --    17 B    1.133    22 C    0.952
    26   6 C    3.987 --    16 C    1.822    27 C    1.001    58 H    0.967
    27   6 C    3.994 --    26 C    1.001    29 C    0.980    28 H    0.970
                            10 C    0.956
    28   1 H    0.998 --    27 C    0.970
    29   6 C    3.986 --    30 C    1.818    27 C    0.980    59 H    0.969
    30   6 C    3.990 --    29 C    1.818    31 C    1.109    60 H    0.966
    31   6 C    3.941 --    30 C    1.109    32 H    0.974    14 C    0.926
                            12 C    0.800
    32   1 H    0.999 --    31 C    0.974
    33   1 H    0.997 --     1 C    0.983
    34   1 H    0.998 --     1 C    0.985
    35   1 H    0.997 --     1 C    0.982
    36   1 H    0.997 --     4 C    0.983
    37   1 H    0.998 --     4 C    0.984
    38   1 H    0.998 --     4 C    0.985
    39   1 H    0.998 --     6 C    0.985
    40   1 H    0.997 --     6 C    0.982
    41   1 H    0.997 --     6 C    0.983
    42   1 H    0.998 --     7 C    0.984
    43   1 H    0.997 --     7 C    0.983
    44   1 H    0.998 --     7 C    0.984
    45   1 H    0.999 --    11 C    0.964
    46   1 H    0.997 --    20 C    0.983
    47   1 H    0.998 --    20 C    0.984
    48   1 H    0.997 --    20 C    0.982
    49   1 H    0.997 --    21 C    0.983
    50   1 H    0.998 --    21 C    0.984
    51   1 H    0.998 --    21 C    0.984
    52   1 H    0.998 --    23 C    0.984
    53   1 H    0.997 --    23 C    0.983
    54   1 H    0.998 --    23 C    0.984
    55   1 H    0.998 --    24 C    0.984
    56   1 H    0.997 --    24 C    0.982
    57   1 H    0.997 --    24 C    0.983
    58   1 H    0.999 --    26 C    0.967
    59   1 H    0.999 --    29 C    0.969
    60   1 H    0.999 --    30 C    0.966
 ---------------------------------------------------------------------------

Topologies differ in total number of bonds
Writing topology from bond orders to xtbtopo.mol

molecular dipole:
                 x           y           z       tot (Debye)
 q only:       -0.230      -0.525       0.234
   full:       -0.162      -0.637       0.236       1.775
molecular quadrupole (traceless):
                xx          xy          yy          xz          yz          zz
 q only:      -56.041      17.416      57.368     -23.503     -47.462      -1.326
  q+dip:      -62.786      11.429      69.693     -18.297     -52.618      -6.908
   full:      -63.708      10.262      71.273     -20.069     -53.751      -7.565

           -------------------------------------------------
          |                Geometry Summary                 |
           -------------------------------------------------

      molecular mass/u    :      382.1099696
   center of mass at/Å    :        2.9646818     -35.8840210      21.8173224
  moments of inertia/u·Å² :        0.1406335E+04   0.6357356E+04   0.6824791E+04
rotational constants/cm⁻¹ :        0.1198693E-01   0.2651673E-02   0.2470058E-02

 * 58 selected distances

     #   Z          #   Z                                           value/Å
     1   6 C        2   6 C                                       1.5271371
     2   6 C        3   8 O                                       1.4260736
     2   6 C        4   6 C                                       1.5341439
     5   6 C        6   6 C                                       1.5271438
     5   6 C        7   6 C                                       1.5340667
     5   6 C        8   8 O                                       1.4270358
     3   8 O        9   5 B                                       1.3683031
     8   8 O        9   5 B                                       1.3681738
     9   5 B       10   6 C                                       1.5577710
    10   6 C       11   6 C                                       1.3476817
    11   6 C       12   6 C                                       1.4465782
    12   6 C       13   1 H                                       1.0820358
    12   6 C       14   6 C                                       1.5136612
    14   6 C       15   1 H                                       1.0845463
    14   6 C       16   6 C                                       1.4797339
    16   6 C       17   5 B                                       1.5621466 (max)
    17   5 B       18   8 O                                       1.3682871
    18   8 O       19   6 C                                       1.4273861
    19   6 C       20   6 C                                       1.5267881
    19   6 C       21   6 C                                       1.5341303
    22   6 C       23   6 C                                       1.5338730
    22   6 C       24   6 C                                       1.5270647
    17   5 B       25   8 O                                       1.3659951
    22   6 C       25   8 O                                       1.4274261
    16   6 C       26   6 C                                       1.3363683
    27   6 C       28   1 H                                       1.0907141
    29   6 C       30   6 C                                       1.3340361
    14   6 C       31   6 C                                       1.5052027
    30   6 C       31   6 C                                       1.4521874
    31   6 C       32   1 H                                       1.0823752
     1   6 C       33   1 H                                       1.0872390
     1   6 C       34   1 H                                       1.0866424
     1   6 C       35   1 H                                       1.0851643
     4   6 C       36   1 H                                       1.0876882
     4   6 C       37   1 H                                       1.0871340
     4   6 C       38   1 H                                       1.0858525
     6   6 C       39   1 H                                       1.0866637
     6   6 C       40   1 H                                       1.0850574
     6   6 C       41   1 H                                       1.0871756
     7   6 C       42   1 H                                       1.0858298
     7   6 C       43   1 H                                       1.0876007
     7   6 C       44   1 H                                       1.0870837
    11   6 C       45   1 H                                       1.0831106
    20   6 C       46   1 H                                       1.0872146
    20   6 C       47   1 H                                       1.0866576
    20   6 C       48   1 H                                       1.0850881
    21   6 C       49   1 H                                       1.0876546
    21   6 C       50   1 H                                       1.0871447
    21   6 C       51   1 H                                       1.0858203
    23   6 C       52   1 H                                       1.0858855
    23   6 C       53   1 H                                       1.0875310
    23   6 C       54   1 H                                       1.0870902
    24   6 C       55   1 H                                       1.0866464
    24   6 C       56   1 H                                       1.0851381
    24   6 C       57   1 H                                       1.0871314
    26   6 C       58   1 H                                       1.0813015 (min)
    29   6 C       59   1 H                                       1.0823913
    30   6 C       60   1 H                                       1.0833965

 * 5 distinct bonds (by element types)

   Z      Z             #   av. dist./Å        max./Å        min./Å
   1 H    6 C          32     1.0858752     1.0907141     1.0813015
   5 B    6 C           2     1.5599588     1.5621466     1.5577710
   6 C    6 C          16     1.4787373     1.5341439     1.3340361
   5 B    8 O           4     1.3676898     1.3683031     1.3659951
   6 C    8 O           4     1.4269804     1.4274261     1.4260736


optimized geometry written to: xtbopt.xyz


           -------------------------------------------------
          | TOTAL ENERGY              -82.317673698148 Eh   |
          | GRADIENT NORM               0.000463355549 Eh/α |
          | HOMO-LUMO GAP               3.399242675578 eV   |
           -------------------------------------------------

------------------------------------------------------------------------
 * finished run on 2022/07/09 at 18:32:58.813     
------------------------------------------------------------------------
 total:
 * wall-time:     0 d,  0 h,  0 min,  2.042 sec
 *  cpu-time:     0 d,  0 h,  0 min,  2.041 sec
 * ratio c/w:     0.999 speedup
 SCF:
 * wall-time:     0 d,  0 h,  0 min,  0.068 sec
 *  cpu-time:     0 d,  0 h,  0 min,  0.068 sec
 * ratio c/w:     1.000 speedup
 ANC optimizer:
 * wall-time:     0 d,  0 h,  0 min,  1.962 sec
 *  cpu-time:     0 d,  0 h,  0 min,  1.961 sec
 * ratio c/w:     0.999 speedup

