      -----------------------------------------------------------      
     |                   =====================                   |     
     |                           x T B                           |     
     |                   =====================                   |     
     |                         S. Grimme                         |     
     |          Mulliken Center for Theoretical Chemistry        |     
     |                    University of Bonn                     |     
      -----------------------------------------------------------      

   * xtb version 6.5.0 (homebrew) compiled by 'nhattrup@GPGGRP-SHANNON.CHEME.CMU.EDU' on 

   xtb is free software: you can redistribute it and/or modify it under
   the terms of the GNU Lesser General Public License as published by
   the Free Software Foundation, either version 3 of the License, or
   (at your option) any later version.
   
   xtb is distributed in the hope that it will be useful,
   but WITHOUT ANY WARRANTY; without even the implied warranty of
   MERCHANTABILITY or FITNESS FOR A PARTICULAR PURPOSE.  See the
   GNU Lesser General Public License for more details.
   
   Cite this work as:
   * C. Bannwarth, E. Caldeweyher, S. Ehlert, A. Hansen, P. Pracht,
     J. Seibert, S. Spicher, S. Grimme, WIREs Comput. Mol. Sci., 2020, 11,
     e01493. DOI: 10.1002/wcms.1493
   
   for GFN2-xTB:
   * C. Bannwarth, S. Ehlert and S. Grimme., J. Chem. Theory Comput., 2019,
     15, 1652-1671. DOI: 10.1021/acs.jctc.8b01176
   for GFN1-xTB:
   * S. Grimme, C. Bannwarth, P. Shushkov, J. Chem. Theory Comput., 2017,
     13, 1989-2009. DOI: 10.1021/acs.jctc.7b00118
   for GFN0-xTB:
   * P. Pracht, E. Caldeweyher, S. Ehlert, S. Grimme, ChemRxiv, 2019, preprint.
     DOI: 10.26434/chemrxiv.8326202.v1
   for GFN-FF:
   * S. Spicher and S. Grimme, Angew. Chem. Int. Ed., 2020, 59, 15665-15673.
     DOI: 10.1002/anie.202004239
   
   for ALPB and GBSA implicit solvation:
   * S. Ehlert, M. Stahn, S. Spicher, S. Grimme, J. Chem. Theory Comput.,
     2021, 17, 4250-4261. DOI: 10.1021/acs.jctc.1c00471
   
   for DFT-D4:
   * E. Caldeweyher, C. Bannwarth and S. Grimme, J. Chem. Phys., 2017,
     147, 034112. DOI: 10.1063/1.4993215
   * E. Caldeweyher, S. Ehlert, A. Hansen, H. Neugebauer, S. Spicher,
     C. Bannwarth and S. Grimme, J. Chem. Phys., 2019, 150, 154122.
     DOI: 10.1063/1.5090222
   * E. Caldeweyher, J.-M. Mewes, S. Ehlert and S. Grimme, Phys. Chem. Chem. Phys.
     2020, 22, 8499-8512. DOI: 10.1039/D0CP00502A
   
   for sTDA-xTB:
   * S. Grimme and C. Bannwarth, J. Chem. Phys., 2016, 145, 054103.
     DOI: 10.1063/1.4959605
   
   in the mass-spec context:
   * V. Asgeirsson, C. Bauer and S. Grimme, Chem. Sci., 2017, 8, 4879.
     DOI: 10.1039/c7sc00601b
   * J. Koopman and S. Grimme, ACS Omega 2019, 4, 12, 15120-15133.
     DOI: 10.1021/acsomega.9b02011
   
   for metadynamics refer to:
   * S. Grimme, J. Chem. Theory Comput., 2019, 155, 2847-2862
     DOI: 10.1021/acs.jctc.9b00143
   
   for SPH calculations refer to:
   * S. Spicher and S. Grimme, J. Chem. Theory Comput., 2021, 17, 1701-1714
     DOI: 10.1021/acs.jctc.0c01306
   
   with help from (in alphabetical order)
   P. Atkinson, C. Bannwarth, F. Bohle, G. Brandenburg, E. Caldeweyher
   M. Checinski, S. Dohm, S. Ehlert, S. Ehrlich, I. Gerasimov, C. Hölzer
   A. Katbashev, J. Koopman, C. Lavigne, S. Lehtola, F. März, M. Müller,
   F. Musil, H. Neugebauer, J. Pisarek, C. Plett, P. Pracht, F. Pultar,
   J. Seibert, P. Shushkov, S. Spicher, M. Stahn, M. Steiner, T. Strunk,
   J. Stückrath, T. Rose, and J. Unsleber
   
 * started run on 2022/07/09 at 18:33:10.924     

           -------------------------------------------------
          |                Calculation Setup                |
           -------------------------------------------------

          program call               : /opt/homebrew/bin/xtb bvl_bpin2_scan_6-1_xtb.xyz --chrg 0 --uhf 0 --opt --input xcontrol_bvl_bpin2_scan_6-1_xtb
          coordinate file            : bvl_bpin2_scan_6-1_xtb.xyz
          omp threads                :                     1

   ID    Z sym.   atoms
    1    6 C      1, 2, 4-7, 10-12, 14, 16, 19-24, 26, 27, 29-31
    2    8 O      3, 8, 18, 25
    3    5 B      9, 17
    4    1 H      13, 15, 28, 32-60
constraining bond 12 31 to    2.1667000 Å, actual value:    2.0509568 Å
constraining bond 10 29 to    2.3889000 Å, actual value:    2.4973004 Å

           -------------------------------------------------
          |                 G F N 2 - x T B                 |
           -------------------------------------------------

        Reference                      10.1021/acs.jctc.8b01176
      * Hamiltonian:
        H0-scaling (s, p, d)           1.850000    2.230000    2.230000
        zeta-weighting                 0.500000
      * Dispersion:
        s8                             2.700000
        a1                             0.520000
        a2                             5.000000
        s9                             5.000000
      * Repulsion:
        kExp                           1.500000    1.000000
        rExp                           1.000000
      * Coulomb:
        alpha                          2.000000
        third order                    shell-resolved
        anisotropic                    true
        a3                             3.000000
        a5                             4.000000
        cn-shift                       1.200000
        cn-exp                         4.000000
        max-rad                        5.000000


          ...................................................
          :                      SETUP                      :
          :.................................................:
          :  # basis functions                 144          :
          :  # atomic orbitals                 144          :
          :  # shells                           88          :
          :  # electrons                       150          :
          :  max. iterations                   250          :
          :  Hamiltonian                  GFN2-xTB          :
          :  restarted?                      false          :
          :  GBSA solvation                  false          :
          :  PC potential                    false          :
          :  electronic temp.          300.0000000     K    :
          :  accuracy                    1.0000000          :
          :  -> integral cutoff          0.2500000E+02      :
          :  -> integral neglect         0.1000000E-07      :
          :  -> SCF convergence          0.1000000E-05 Eh   :
          :  -> wf. convergence          0.1000000E-03 e    :
          :  Broyden damping             0.4000000          :
          ...................................................

 iter      E             dE          RMSdq      gap      omega  full diag
   1    -82.9249606 -0.829250E+02  0.472E+00    1.84       0.0  T
   2    -83.2956973 -0.370737E+00  0.292E+00    1.74       1.0  T
   3    -83.2835417  0.121556E-01  0.161E+00    1.93       1.0  T
   4    -83.2541392  0.294025E-01  0.123E+00    1.97       1.0  T
   5    -83.3508843 -0.967451E-01  0.290E-01    1.82       1.0  T
   6    -83.3553969 -0.451259E-02  0.119E-01    1.82       1.0  T
   7    -83.3551735  0.223387E-03  0.839E-02    1.81       1.0  T
   8    -83.3555381 -0.364591E-03  0.201E-02    1.81       1.0  T
   9    -83.3555555 -0.173985E-04  0.737E-03    1.81       1.8  T
  10    -83.3555567 -0.120786E-05  0.394E-03    1.81       3.3  T
  11    -83.3555569 -0.211201E-06  0.176E-03    1.81       7.3  T
  12    -83.3555570 -0.995910E-07  0.366E-04    1.81      35.2  T
  13    -83.3555570 -0.122566E-08  0.189E-04    1.81      68.3  T

   *** convergence criteria satisfied after 13 iterations ***

         #    Occupation            Energy/Eh            Energy/eV
      -------------------------------------------------------------
         1        2.0000           -0.6874758             -18.7072
       ...           ...                  ...                  ...
        69        2.0000           -0.4010955             -10.9144
        70        2.0000           -0.3971395             -10.8067
        71        2.0000           -0.3949854             -10.7481
        72        2.0000           -0.3935309             -10.7085
        73        2.0000           -0.3924412             -10.6789
        74        2.0000           -0.3642543              -9.9119
        75        2.0000           -0.3283202              -8.9340 (HOMO)
        76                         -0.2616853              -7.1208 (LUMO)
        77                         -0.2182683              -5.9394
        78                         -0.1874581              -5.1010
        79                         -0.1381197              -3.7584
        80                         -0.0971357              -2.6432
       ...                                ...                  ...
       144                          0.6750062              18.3679
      -------------------------------------------------------------
                  HL-Gap            0.0666348 Eh            1.8132 eV
             Fermi-level           -0.2950027 Eh           -8.0274 eV

 SCC (total)                   0 d,  0 h,  0 min,  0.071 sec
 SCC setup                      ...        0 min,  0.000 sec (  0.353%)
 Dispersion                     ...        0 min,  0.000 sec (  0.673%)
 classical contributions        ...        0 min,  0.000 sec (  0.254%)
 integral evaluation            ...        0 min,  0.006 sec (  8.666%)
 iterations                     ...        0 min,  0.036 sec ( 50.814%)
 molecular gradient             ...        0 min,  0.027 sec ( 38.759%)
 printout                       ...        0 min,  0.000 sec (  0.473%)

         :::::::::::::::::::::::::::::::::::::::::::::::::::::
         ::                     SUMMARY                     ::
         :::::::::::::::::::::::::::::::::::::::::::::::::::::
         :: total energy             -82.103902360549 Eh    ::
         :: gradient norm              1.679152314889 Eh/a0 ::
         :: HOMO-LUMO gap              1.813226387154 eV    ::
         ::.................................................::
         :: SCC energy               -83.355556991351 Eh    ::
         :: -> isotropic ES            0.147638910196 Eh    ::
         :: -> anisotropic ES          0.012749279269 Eh    ::
         :: -> anisotropic XC          0.027396525551 Eh    ::
         :: -> dispersion             -0.061922034636 Eh    ::
         :: repulsion energy           1.071257175217 Eh    ::
         :: add. restraining           0.179604159871 Eh    ::
         :: total charge              -0.000000000000 e     ::
         :::::::::::::::::::::::::::::::::::::::::::::::::::::

      ----------------------------------------------------------- 
     |                   =====================                   |
     |                        A N C O P T                        |
     |                   =====================                   |
     |               Approximate Normal Coordinate               |
     |                Rational Function Optimizer                |
      ----------------------------------------------------------- 

          ...................................................
          :                      SETUP                      :
          :.................................................:
          :   optimization level            normal          :
          :   max. optcycles                   200          :
          :   ANC micro-cycles                  20          :
          :   degrees of freedom               174          :
          :.................................................:
          :   RF solver                   davidson          :
          :   write xtbopt.log                true          :
          :   linear?                        false          :
          :   energy convergence         0.5000000E-05 Eh   :
          :   grad. convergence          0.1000000E-02 Eh/α :
          :   maximium RF displ.         1.0000000          :
          :   Hlow (freq-cutoff)         0.1000000E-01      :
          :   Hmax (freq-cutoff)         5.0000000          :
          :   S6 in model hess.         20.0000000          :
          ...................................................

generating ANC from model Hessian ...
Using Lindh-Hessian (1995)
 Shifting diagonal of input Hessian by   0.22241524948116079     
 Lowest  eigenvalues of input Hessian
    0.010000    0.142021    0.000000    0.000000    0.000000    0.000000
    0.000000    0.000000    0.222506    0.222550    0.222665    0.224024
    0.224257    0.225015    0.225706    0.225765    0.227065    0.227579
 Highest eigenvalues
    1.934332    2.099524    2.111837    2.226929    8.850740    8.908912


........................................................................
.............................. CYCLE    1 ..............................
........................................................................
   1    -83.3555570 -0.833556E+02  0.800E-05    1.81       0.0  T
   2    -83.3555570 -0.239851E-09  0.567E-05    1.81     227.6  T
   3    -83.3555570 -0.198952E-09  0.234E-05    1.81     551.4  T
     SCC iter.                  ...        0 min,  0.008 sec
     gradient                   ...        0 min,  0.027 sec
 * total energy  :   -82.1039024 Eh     change       -0.9474519E-09 Eh
   gradient norm :     1.6791525 Eh/α   predicted     0.0000000E+00 (-100.00%)
   displ. norm   :     0.3113983 α      lambda       -0.5156434E+00
   maximum displ.:     0.3011953 α      in ANC's #174, #173, #127, ...

........................................................................
.............................. CYCLE    2 ..............................
........................................................................
   1    -83.3415450 -0.833415E+02  0.310E-01    1.47       0.0  T
   2    -83.3409850  0.559951E-03  0.284E-01    1.49       1.0  T
   3    -83.3434878 -0.250278E-02  0.144E-01    1.47       1.0  T
   4    -83.3436215 -0.133760E-03  0.438E-02    1.48       1.0  T
   5    -83.3437111 -0.895312E-04  0.101E-02    1.48       1.3  T
   6    -83.3437157 -0.458827E-05  0.372E-03    1.48       3.5  T
   7    -83.3437156  0.184908E-07  0.169E-03    1.48       7.6  T
   8    -83.3437157 -0.148531E-07  0.138E-03    1.48       9.4  T
   9    -83.3437158 -0.113040E-06  0.386E-04    1.48      33.5  T
  10    -83.3437158 -0.582438E-08  0.140E-04    1.48      92.4  T
     SCC iter.                  ...        0 min,  0.028 sec
     gradient                   ...        0 min,  0.027 sec
 * total energy  :   -82.2338526 Eh     change       -0.1299502E+00 Eh
   gradient norm :     0.8451744 Eh/α   predicted    -0.2831402E+00 ( 117.88%)
   displ. norm   :     0.1060884 α      lambda       -0.8599497E-01
   maximum displ.:     0.1005738 α      in ANC's #174, #37, #173, ...

........................................................................
.............................. CYCLE    3 ..............................
........................................................................
   1    -83.3493012 -0.833493E+02  0.107E-01    1.56       0.0  T
   2    -83.3492236  0.775812E-04  0.103E-01    1.56       1.0  T
   3    -83.3496277 -0.404011E-03  0.512E-02    1.56       1.0  T
   4    -83.3495615  0.661646E-04  0.366E-02    1.56       1.0  T
   5    -83.3496329 -0.713765E-04  0.143E-02    1.56       1.0  T
   6    -83.3496458 -0.128908E-04  0.291E-03    1.56       4.4  T
   7    -83.3496461 -0.369826E-06  0.117E-03    1.56      11.0  T
   8    -83.3496461 -0.183106E-07  0.278E-04    1.56      46.4  T
   9    -83.3496461 -0.152350E-08  0.117E-04    1.56     110.5  T
     SCC iter.                  ...        0 min,  0.025 sec
     gradient                   ...        0 min,  0.028 sec
 * total energy  :   -82.2778153 Eh     change       -0.4396277E-01 Eh
   gradient norm :     0.0305821 Eh/α   predicted    -0.4348141E-01 (  -1.09%)
   displ. norm   :     0.0414797 α      lambda       -0.7896567E-03
   maximum displ.:     0.0176576 α      in ANC's #37, #109, #127, ...

........................................................................
.............................. CYCLE    4 ..............................
........................................................................
   1    -83.3503161 -0.833503E+02  0.281E-02    1.57       0.0  T
   2    -83.3503154  0.639901E-06  0.182E-02    1.57       1.0  T
   3    -83.3502929  0.225801E-04  0.201E-02    1.57       1.0  T
   4    -83.3503168 -0.239483E-04  0.709E-03    1.57       1.8  T
   5    -83.3503199 -0.309724E-05  0.199E-03    1.57       6.5  T
   6    -83.3503202 -0.262404E-06  0.481E-04    1.57      26.8  T
   7    -83.3503202 -0.536687E-08  0.244E-04    1.57      53.0  T
     SCC iter.                  ...        0 min,  0.019 sec
     gradient                   ...        0 min,  0.028 sec
 * total energy  :   -82.2785272 Eh     change       -0.7118534E-03 Eh
   gradient norm :     0.0180479 Eh/α   predicted    -0.4469772E-03 ( -37.21%)
   displ. norm   :     0.1254197 α      lambda       -0.1406723E-02
   maximum displ.:     0.0637658 α      in ANC's #1, #37, #33, ...

........................................................................
.............................. CYCLE    5 ..............................
........................................................................
   1    -83.3512493 -0.833512E+02  0.794E-02    1.56       0.0  T
   2    -83.3512466  0.264760E-05  0.492E-02    1.56       1.0  T
   3    -83.3510287  0.217970E-03  0.557E-02    1.56       1.0  T
   4    -83.3512528 -0.224156E-03  0.134E-02    1.56       1.0  T
   5    -83.3512628 -0.995265E-05  0.367E-03    1.56       3.5  T
   6    -83.3512636 -0.852185E-06  0.140E-03    1.56       9.2  T
   7    -83.3512637 -0.693745E-07  0.596E-04    1.56      21.7  T
   8    -83.3512637 -0.835847E-08  0.189E-04    1.56      68.3  T
     SCC iter.                  ...        0 min,  0.022 sec
     gradient                   ...        0 min,  0.028 sec
 * total energy  :   -82.2790804 Eh     change       -0.5532377E-03 Eh
   gradient norm :     0.0224131 Eh/α   predicted    -0.7147035E-03 (  29.19%)
   displ. norm   :     0.3580126 α      lambda       -0.2263107E-02
   maximum displ.:     0.3151881 α      in ANC's #1, #37, #33, ...

........................................................................
.............................. CYCLE    6 ..............................
........................................................................
   1    -83.3468293 -0.833468E+02  0.213E-01    1.52       0.0  T
   2    -83.3468441 -0.147872E-04  0.128E-01    1.52       1.0  T
   3    -83.3461409  0.703187E-03  0.109E-01    1.53       1.0  T
   4    -83.3467929 -0.651999E-03  0.336E-02    1.52       1.0  T
   5    -83.3468817 -0.888687E-04  0.716E-03    1.52       1.8  T
   6    -83.3468845 -0.272998E-05  0.292E-03    1.52       4.4  T
   7    -83.3468847 -0.218117E-06  0.122E-03    1.52      10.6  T
   8    -83.3468847 -0.476224E-07  0.411E-04    1.52      31.4  T
   9    -83.3468847 -0.594038E-08  0.157E-04    1.52      82.0  T
     SCC iter.                  ...        0 min,  0.025 sec
     gradient                   ...        0 min,  0.028 sec
 * total energy  :   -82.2746252 Eh     change        0.4455182E-02 Eh
   gradient norm :     0.1002904 Eh/α   predicted    -0.1276685E-02 (-128.66%)
   displ. norm   :     0.2537285 α      lambda       -0.9994322E-02
   maximum displ.:     0.2302779 α      in ANC's #1, #37, #109, ...

........................................................................
.............................. CYCLE    7 ..............................
........................................................................
   1    -83.3527978 -0.833528E+02  0.155E-01    1.57       0.0  T
   2    -83.3528119 -0.140605E-04  0.931E-02    1.57       1.0  T
   3    -83.3525575  0.254356E-03  0.647E-02    1.56       1.0  T
   4    -83.3527868 -0.229325E-03  0.238E-02    1.57       1.0  T
   5    -83.3528290 -0.421166E-04  0.702E-03    1.57       1.8  T
   6    -83.3528319 -0.294212E-05  0.204E-03    1.57       6.3  T
   7    -83.3528320 -0.623807E-07  0.903E-04    1.57      14.3  T
   8    -83.3528320 -0.246166E-07  0.311E-04    1.57      41.6  T
     SCC iter.                  ...        0 min,  0.023 sec
     gradient                   ...        0 min,  0.028 sec
 * total energy  :   -82.2795000 Eh     change       -0.4874778E-02 Eh
   gradient norm :     0.0324243 Eh/α   predicted    -0.5318085E-02 (   9.09%)
   displ. norm   :     0.0296189 α      lambda       -0.3486318E-03
   maximum displ.:     0.0232864 α      in ANC's #1, #37, #114, ...

........................................................................
.............................. CYCLE    8 ..............................
........................................................................
   1    -83.3530264 -0.833530E+02  0.190E-02    1.56       0.0  T
   2    -83.3530262  0.121025E-06  0.123E-02    1.56       1.0  T
   3    -83.3530160  0.102330E-04  0.134E-02    1.56       1.0  T
   4    -83.3530263 -0.103228E-04  0.452E-03    1.56       2.9  T
   5    -83.3530277 -0.139353E-05  0.124E-03    1.56      10.4  T
   6    -83.3530278 -0.108218E-06  0.283E-04    1.56      45.7  T
   7    -83.3530278 -0.896605E-09  0.148E-04    1.56      87.3  T
     SCC iter.                  ...        0 min,  0.019 sec
     gradient                   ...        0 min,  0.028 sec
 * total energy  :   -82.2797075 Eh     change       -0.2075049E-03 Eh
   gradient norm :     0.0111896 Eh/α   predicted    -0.1746684E-03 ( -15.82%)
   displ. norm   :     0.0527223 α      lambda       -0.2348917E-03
   maximum displ.:     0.0319358 α      in ANC's #37, #33, #32, ...

........................................................................
.............................. CYCLE    9 ..............................
........................................................................
   1    -83.3535557 -0.833536E+02  0.259E-02    1.56       0.0  T
   2    -83.3535558 -0.132686E-06  0.155E-02    1.56       1.0  T
   3    -83.3535525  0.331394E-05  0.635E-03    1.56       2.0  T
   4    -83.3535560 -0.352483E-05  0.832E-04    1.56      15.5  T
   5    -83.3535560 -0.785808E-08  0.697E-04    1.56      18.5  T
   6    -83.3535561 -0.254581E-07  0.354E-04    1.56      36.5  T
     SCC iter.                  ...        0 min,  0.016 sec
     gradient                   ...        0 min,  0.028 sec
 * total energy  :   -82.2799072 Eh     change       -0.1997158E-03 Eh
   gradient norm :     0.0107464 Eh/α   predicted    -0.1178171E-03 ( -41.01%)
   displ. norm   :     0.1678271 α      lambda       -0.5810037E-03
   maximum displ.:     0.1024114 α      in ANC's #37, #33, #32, ...

........................................................................
.............................. CYCLE   10 ..............................
........................................................................
   1    -83.3546224 -0.833546E+02  0.806E-02    1.56       0.0  T
   2    -83.3546235 -0.113916E-05  0.479E-02    1.56       1.0  T
   3    -83.3546159  0.755924E-05  0.983E-03    1.56       1.3  T
   4    -83.3546238 -0.787125E-05  0.276E-03    1.56       4.7  T
   5    -83.3546240 -0.206222E-06  0.193E-03    1.56       6.7  T
   6    -83.3546242 -0.182982E-06  0.101E-03    1.56      12.8  T
   7    -83.3546242 -0.342022E-07  0.302E-04    1.56      42.8  T
   8    -83.3546242 -0.333011E-08  0.104E-04    1.56     124.4  T
     SCC iter.                  ...        0 min,  0.022 sec
     gradient                   ...        0 min,  0.028 sec
 * total energy  :   -82.2802428 Eh     change       -0.3355455E-03 Eh
   gradient norm :     0.0081009 Eh/α   predicted    -0.2990254E-03 ( -10.88%)
   displ. norm   :     0.0420860 α      lambda       -0.7279417E-04
   maximum displ.:     0.0228013 α      in ANC's #37, #33, #19, ...

........................................................................
.............................. CYCLE   11 ..............................
........................................................................
   1    -83.3549577 -0.833550E+02  0.190E-02    1.57       0.0  T
   2    -83.3549576  0.517622E-07  0.115E-02    1.57       1.1  T
   3    -83.3549513  0.634355E-05  0.964E-03    1.57       1.3  T
   4    -83.3549578 -0.651253E-05  0.900E-04    1.57      14.4  T
   5    -83.3549578 -0.394604E-07  0.300E-04    1.57      43.0  T
   6    -83.3549578 -0.179695E-08  0.172E-04    1.57      74.9  T
     SCC iter.                  ...        0 min,  0.016 sec
     gradient                   ...        0 min,  0.028 sec
 * total energy  :   -82.2802998 Eh     change       -0.5706117E-04 Eh
   gradient norm :     0.0050479 Eh/α   predicted    -0.3650831E-04 ( -36.02%)
   displ. norm   :     0.0565039 α      lambda       -0.1034656E-03
   maximum displ.:     0.0234663 α      in ANC's #37, #19, #28, ...

........................................................................
.............................. CYCLE   12 ..............................
........................................................................
   1    -83.3554957 -0.833555E+02  0.244E-02    1.57       0.0  T
   2    -83.3554951  0.631355E-06  0.152E-02    1.57       1.0  T
   3    -83.3554710  0.241012E-04  0.193E-02    1.57       1.0  T
   4    -83.3554961 -0.251265E-04  0.164E-03    1.57       7.9  T
   5    -83.3554962 -0.136727E-06  0.490E-04    1.57      26.3  T
   6    -83.3554962 -0.854551E-08  0.235E-04    1.57      55.0  T
     SCC iter.                  ...        0 min,  0.016 sec
     gradient                   ...        0 min,  0.028 sec
 * total energy  :   -82.2803689 Eh     change       -0.6906246E-04 Eh
   gradient norm :     0.0034241 Eh/α   predicted    -0.5184201E-04 ( -24.93%)
   displ. norm   :     0.0356749 α      lambda       -0.5170250E-04
   maximum displ.:     0.0128557 α      in ANC's #19, #28, #8, ...

........................................................................
.............................. CYCLE   13 ..............................
........................................................................
   1    -83.3557371 -0.833557E+02  0.140E-02    1.57       0.0  T
   2    -83.3557365  0.604409E-06  0.920E-03    1.57       1.4  T
   3    -83.3557269  0.952764E-05  0.126E-02    1.57       1.0  T
   4    -83.3557373 -0.103834E-04  0.922E-04    1.57      14.0  T
   5    -83.3557373 -0.398078E-07  0.292E-04    1.57      44.2  T
   6    -83.3557374 -0.303841E-08  0.133E-04    1.57      97.4  T
     SCC iter.                  ...        0 min,  0.016 sec
     gradient                   ...        0 min,  0.028 sec
 * total energy  :   -82.2804086 Eh     change       -0.3972111E-04 Eh
   gradient norm :     0.0040194 Eh/α   predicted    -0.2591514E-04 ( -34.76%)
   displ. norm   :     0.0519897 α      lambda       -0.7160422E-04
   maximum displ.:     0.0188440 α      in ANC's #19, #28, #8, ...

........................................................................
.............................. CYCLE   14 ..............................
........................................................................
   1    -83.3557958 -0.833558E+02  0.180E-02    1.57       0.0  T
   2    -83.3557947  0.104984E-05  0.120E-02    1.57       1.1  T
   3    -83.3557793  0.154164E-04  0.162E-02    1.57       1.0  T
   4    -83.3557962 -0.169076E-04  0.960E-04    1.57      13.5  T
   5    -83.3557963 -0.392970E-07  0.407E-04    1.57      31.7  T
   6    -83.3557963 -0.676118E-08  0.184E-04    1.57      70.0  T
     SCC iter.                  ...        0 min,  0.016 sec
     gradient                   ...        0 min,  0.028 sec
 * total energy  :   -82.2804597 Eh     change       -0.5110213E-04 Eh
   gradient norm :     0.0042949 Eh/α   predicted    -0.3588830E-04 ( -29.77%)
   displ. norm   :     0.0485621 α      lambda       -0.5811363E-04
   maximum displ.:     0.0179885 α      in ANC's #28, #19, #8, ...

........................................................................
.............................. CYCLE   15 ..............................
........................................................................
   1    -83.3555399 -0.833555E+02  0.152E-02    1.57       0.0  T
   2    -83.3555396  0.273516E-06  0.966E-03    1.57       1.3  T
   3    -83.3555302  0.936627E-05  0.122E-02    1.57       1.1  T
   4    -83.3555400 -0.980771E-05  0.983E-04    1.57      13.1  T
   5    -83.3555401 -0.623312E-07  0.306E-04    1.57      42.2  T
   6    -83.3555401 -0.329969E-08  0.171E-04    1.57      75.4  T
     SCC iter.                  ...        0 min,  0.016 sec
     gradient                   ...        0 min,  0.028 sec
 * total energy  :   -82.2805019 Eh     change       -0.4216220E-04 Eh
   gradient norm :     0.0035664 Eh/α   predicted    -0.2912427E-04 ( -30.92%)
   displ. norm   :     0.0462920 α      lambda       -0.5143398E-04
   maximum displ.:     0.0182712 α      in ANC's #28, #8, #19, ...

........................................................................
.............................. CYCLE   16 ..............................
........................................................................
   1    -83.3550788 -0.833551E+02  0.153E-02    1.58       0.0  T
   2    -83.3550789 -0.657591E-07  0.925E-03    1.58       1.4  T
   3    -83.3550780  0.929879E-06  0.394E-03    1.57       3.3  T
   4    -83.3550788 -0.832226E-06  0.152E-03    1.58       8.5  T
   5    -83.3550790 -0.153111E-06  0.352E-04    1.58      36.6  T
   6    -83.3550790 -0.381834E-08  0.156E-04    1.58      83.0  T
     SCC iter.                  ...        0 min,  0.016 sec
     gradient                   ...        0 min,  0.028 sec
 * total energy  :   -82.2805386 Eh     change       -0.3671886E-04 Eh
   gradient norm :     0.0027272 Eh/α   predicted    -0.2577793E-04 ( -29.80%)
   displ. norm   :     0.0414970 α      lambda       -0.4159902E-04
   maximum displ.:     0.0179894 α      in ANC's #28, #8, #19, ...

........................................................................
.............................. CYCLE   17 ..............................
........................................................................
   1    -83.3546345 -0.833546E+02  0.160E-02    1.58       0.0  T
   2    -83.3546345 -0.200439E-07  0.960E-03    1.58       1.3  T
   3    -83.3546335  0.106245E-05  0.413E-03    1.58       3.1  T
   4    -83.3546345 -0.102930E-05  0.118E-03    1.58      11.0  T
   5    -83.3546346 -0.822320E-07  0.311E-04    1.58      41.5  T
   6    -83.3546346 -0.147881E-08  0.150E-04    1.58      85.9  T
     SCC iter.                  ...        0 min,  0.017 sec
     gradient                   ...        0 min,  0.028 sec
 * total energy  :   -82.2805690 Eh     change       -0.3042967E-04 Eh
   gradient norm :     0.0029651 Eh/α   predicted    -0.2083603E-04 ( -31.53%)
   displ. norm   :     0.0446137 α      lambda       -0.4062361E-04
   maximum displ.:     0.0208413 α      in ANC's #28, #8, #19, ...

........................................................................
.............................. CYCLE   18 ..............................
........................................................................
   1    -83.3542895 -0.833543E+02  0.185E-02    1.58       0.0  T
   2    -83.3542895 -0.370669E-07  0.111E-02    1.58       1.2  T
   3    -83.3542893  0.190307E-06  0.201E-03    1.58       6.4  T
   4    -83.3542895 -0.197918E-06  0.574E-04    1.58      22.5  T
   5    -83.3542895 -0.582328E-08  0.444E-04    1.58      29.1  T
     SCC iter.                  ...        0 min,  0.014 sec
     gradient                   ...        0 min,  0.028 sec
 * total energy  :   -82.2805985 Eh     change       -0.2945970E-04 Eh
   gradient norm :     0.0033255 Eh/α   predicted    -0.2035098E-04 ( -30.92%)
   displ. norm   :     0.0462462 α      lambda       -0.3702818E-04
   maximum displ.:     0.0226874 α      in ANC's #28, #8, #19, ...

........................................................................
.............................. CYCLE   19 ..............................
........................................................................
   1    -83.3541444 -0.833541E+02  0.186E-02    1.59       0.0  T
   2    -83.3541443  0.947937E-07  0.113E-02    1.59       1.1  T
   3    -83.3541369  0.733522E-05  0.104E-02    1.59       1.2  T
   4    -83.3541445 -0.753119E-05  0.102E-03    1.59      12.6  T
   5    -83.3541445 -0.532947E-07  0.393E-04    1.59      32.9  T
   6    -83.3541445 -0.585135E-08  0.222E-04    1.59      58.3  T
     SCC iter.                  ...        0 min,  0.017 sec
     gradient                   ...        0 min,  0.028 sec
 * total energy  :   -82.2806252 Eh     change       -0.2664760E-04 Eh
   gradient norm :     0.0029593 Eh/α   predicted    -0.1855777E-04 ( -30.36%)
   displ. norm   :     0.0436681 α      lambda       -0.3078599E-04
   maximum displ.:     0.0219436 α      in ANC's #28, #8, #19, ...

........................................................................
.............................. CYCLE   20 ..............................
........................................................................
   1    -83.3541948 -0.833542E+02  0.161E-02    1.59       0.0  T
   2    -83.3541943  0.444197E-06  0.101E-02    1.59       1.3  T
   3    -83.3541825  0.118381E-04  0.138E-02    1.59       1.0  T
   4    -83.3541950 -0.125317E-04  0.104E-03    1.59      12.4  T
   5    -83.3541951 -0.664625E-07  0.318E-04    1.59      40.6  T
   6    -83.3541951 -0.374251E-08  0.176E-04    1.59      73.3  T
     SCC iter.                  ...        0 min,  0.016 sec
     gradient                   ...        0 min,  0.028 sec
 * total energy  :   -82.2806470 Eh     change       -0.2182727E-04 Eh
   gradient norm :     0.0021176 Eh/α   predicted    -0.1542885E-04 ( -29.31%)
   displ. norm   :     0.0369927 α      lambda       -0.2290740E-04
   maximum displ.:     0.0184204 α      in ANC's #28, #8, #18, ...
 * RMSD in coord.:     0.1017499 α      energy gain  -0.1767446E+00 Eh

generating ANC from model Hessian ...
Using Lindh-Hessian (1995)
 Shifting diagonal of input Hessian by    1.0089069710392015E-002
 Lowest  eigenvalues of input Hessian
    0.010000    0.000000    0.000000    0.000000    0.000000    0.000000
    0.000000    0.010180    0.010212    0.010234    0.010923    0.011837
    0.012354    0.013171    0.013387    0.013457    0.015036    0.015257
 Highest eigenvalues
    1.720271    1.891159    1.896433    1.914265    8.609749    8.663231


........................................................................
.............................. CYCLE   21 ..............................
........................................................................
   1    -83.3543263 -0.833543E+02  0.126E-02    1.60       0.0  T
   2    -83.3543258  0.555129E-06  0.821E-03    1.60       1.6  T
   3    -83.3543184  0.735482E-05  0.114E-02    1.60       1.1  T
   4    -83.3543266 -0.816065E-05  0.883E-04    1.60      14.6  T
   5    -83.3543266 -0.429997E-07  0.266E-04    1.60      48.5  T
   6    -83.3543266 -0.262102E-08  0.115E-04    1.60     112.3  T
     SCC iter.                  ...        0 min,  0.017 sec
     gradient                   ...        0 min,  0.028 sec
 * total energy  :   -82.2806634 Eh     change       -0.1644422E-04 Eh
   gradient norm :     0.0018135 Eh/α   predicted     0.0000000E+00 (-100.00%)
   displ. norm   :     0.0832980 α      lambda       -0.5689212E-04
   maximum displ.:     0.0332263 α      in ANC's #6, #2, #27, ...

........................................................................
.............................. CYCLE   22 ..............................
........................................................................
   1    -83.3544246 -0.833544E+02  0.239E-02    1.59       0.0  T
   2    -83.3544247 -0.920465E-07  0.142E-02    1.59       1.0  T
   3    -83.3544203  0.436200E-05  0.832E-03    1.59       1.6  T
   4    -83.3544245 -0.415384E-05  0.257E-03    1.59       5.0  T
   5    -83.3544249 -0.452387E-06  0.578E-04    1.59      22.3  T
   6    -83.3544250 -0.969550E-08  0.316E-04    1.59      40.8  T
     SCC iter.                  ...        0 min,  0.016 sec
     gradient                   ...        0 min,  0.028 sec
 * total energy  :   -82.2807201 Eh     change       -0.5665271E-04 Eh
   gradient norm :     0.0012597 Eh/α   predicted    -0.2856617E-04 ( -49.58%)
   displ. norm   :     0.1326520 α      lambda       -0.4509012E-04
   maximum displ.:     0.0598556 α      in ANC's #6, #2, #3, ...

........................................................................
.............................. CYCLE   23 ..............................
........................................................................
   1    -83.3544273 -0.833544E+02  0.267E-02    1.59       0.0  T
   2    -83.3544273  0.597709E-07  0.161E-02    1.59       1.0  T
   3    -83.3544171  0.102248E-04  0.125E-02    1.59       1.0  T
   4    -83.3544275 -0.104124E-04  0.180E-03    1.59       7.2  T
   5    -83.3544277 -0.189221E-06  0.506E-04    1.59      25.5  T
   6    -83.3544277 -0.616092E-08  0.240E-04    1.59      53.7  T
     SCC iter.                  ...        0 min,  0.016 sec
     gradient                   ...        0 min,  0.028 sec
 * total energy  :   -82.2807661 Eh     change       -0.4600407E-04 Eh
   gradient norm :     0.0016349 Eh/α   predicted    -0.2277069E-04 ( -50.50%)
   displ. norm   :     0.1561722 α      lambda       -0.3517051E-04
   maximum displ.:     0.0755801 α      in ANC's #2, #6, #3, ...

........................................................................
.............................. CYCLE   24 ..............................
........................................................................
   1    -83.3542456 -0.833542E+02  0.268E-02    1.60       0.0  T
   2    -83.3542453  0.298349E-06  0.163E-02    1.60       1.0  T
   3    -83.3542294  0.158851E-04  0.157E-02    1.60       1.0  T
   4    -83.3542458 -0.163297E-04  0.152E-03    1.60       8.5  T
   5    -83.3542459 -0.142346E-06  0.433E-04    1.60      29.8  T
   6    -83.3542459 -0.684793E-09  0.192E-04    1.60      67.2  T
     SCC iter.                  ...        0 min,  0.016 sec
     gradient                   ...        0 min,  0.028 sec
 * total energy  :   -82.2808051 Eh     change       -0.3901796E-04 Eh
   gradient norm :     0.0020992 Eh/α   predicted    -0.1777988E-04 ( -54.43%)
   displ. norm   :     0.1232901 α      lambda       -0.3538042E-04
   maximum displ.:     0.0645498 α      in ANC's #2, #3, #1, ...

........................................................................
.............................. CYCLE   25 ..............................
........................................................................
   1    -83.3541856 -0.833542E+02  0.189E-02    1.60       0.0  T
   2    -83.3541855  0.155731E-07  0.114E-02    1.60       1.1  T
   3    -83.3541829  0.260937E-05  0.627E-03    1.60       2.1  T
   4    -83.3541856 -0.267322E-05  0.700E-04    1.60      18.5  T
   5    -83.3541856 -0.205785E-07  0.323E-04    1.60      40.0  T
   6    -83.3541856 -0.487958E-09  0.172E-04    1.60      74.9  T
     SCC iter.                  ...        0 min,  0.016 sec
     gradient                   ...        0 min,  0.028 sec
 * total energy  :   -82.2808347 Eh     change       -0.2961756E-04 Eh
   gradient norm :     0.0018743 Eh/α   predicted    -0.1795996E-04 ( -39.36%)
   displ. norm   :     0.2794592 α      lambda       -0.4767144E-04
   maximum displ.:     0.1521143 α      in ANC's #2, #3, #1, ...

........................................................................
.............................. CYCLE   26 ..............................
........................................................................
   1    -83.3539690 -0.833540E+02  0.416E-02    1.61       0.0  T
   2    -83.3539690 -0.152699E-07  0.250E-02    1.61       1.0  T
   3    -83.3539600  0.898751E-05  0.118E-02    1.61       1.1  T
   4    -83.3539691 -0.913685E-05  0.180E-03    1.61       7.2  T
   5    -83.3539693 -0.169849E-06  0.746E-04    1.61      17.3  T
   6    -83.3539693 -0.850052E-08  0.425E-04    1.61      30.4  T
     SCC iter.                  ...        0 min,  0.016 sec
     gradient                   ...        0 min,  0.028 sec
 * total energy  :   -82.2808824 Eh     change       -0.4772809E-04 Eh
   gradient norm :     0.0023897 Eh/α   predicted    -0.2468376E-04 ( -48.28%)
   displ. norm   :     0.1153851 α      lambda       -0.2430589E-04
   maximum displ.:     0.0676408 α      in ANC's #2, #3, #1, ...

........................................................................
.............................. CYCLE   27 ..............................
........................................................................
   1    -83.3540598 -0.833541E+02  0.162E-02    1.61       0.0  T
   2    -83.3540598 -0.155462E-07  0.965E-03    1.61       1.3  T
   3    -83.3540588  0.100534E-05  0.367E-03    1.61       3.5  T
   4    -83.3540598 -0.100750E-05  0.953E-04    1.61      13.5  T
   5    -83.3540599 -0.512731E-07  0.378E-04    1.61      34.2  T
   6    -83.3540599 -0.485775E-08  0.177E-04    1.61      72.9  T
     SCC iter.                  ...        0 min,  0.016 sec
     gradient                   ...        0 min,  0.028 sec
 * total energy  :   -82.2809027 Eh     change       -0.2026398E-04 Eh
   gradient norm :     0.0028585 Eh/α   predicted    -0.1231609E-04 ( -39.22%)
   displ. norm   :     0.1527069 α      lambda       -0.3568355E-04
   maximum displ.:     0.0912023 α      in ANC's #2, #3, #1, ...

........................................................................
.............................. CYCLE   28 ..............................
........................................................................
   1    -83.3543786 -0.833544E+02  0.205E-02    1.61       0.0  T
   2    -83.3543786 -0.565686E-07  0.122E-02    1.61       1.1  T
   3    -83.3543784  0.172215E-06  0.167E-03    1.61       7.7  T
   4    -83.3543786 -0.145161E-06  0.951E-04    1.61      13.6  T
   5    -83.3543786 -0.495172E-07  0.384E-04    1.61      33.6  T
     SCC iter.                  ...        0 min,  0.014 sec
     gradient                   ...        0 min,  0.028 sec
 * total energy  :   -82.2809329 Eh     change       -0.3021562E-04 Eh
   gradient norm :     0.0020905 Eh/α   predicted    -0.1826010E-04 ( -39.57%)
   displ. norm   :     0.2069017 α      lambda       -0.4270903E-04
   maximum displ.:     0.1249369 α      in ANC's #2, #3, #1, ...

........................................................................
.............................. CYCLE   29 ..............................
........................................................................
   1    -83.3544885 -0.833545E+02  0.258E-02    1.61       0.0  T
   2    -83.3544886 -0.878851E-07  0.154E-02    1.61       1.0  T
   3    -83.3544883  0.356367E-06  0.252E-03    1.61       5.1  T
   4    -83.3544886 -0.329222E-06  0.112E-03    1.61      11.5  T
   5    -83.3544887 -0.584487E-07  0.544E-04    1.61      23.7  T
   6    -83.3544887 -0.124986E-07  0.259E-04    1.61      49.8  T
     SCC iter.                  ...        0 min,  0.016 sec
     gradient                   ...        0 min,  0.027 sec
 * total energy  :   -82.2809674 Eh     change       -0.3446679E-04 Eh
   gradient norm :     0.0013117 Eh/α   predicted    -0.2227097E-04 ( -35.38%)
   displ. norm   :     0.2994496 α      lambda       -0.3394954E-04
   maximum displ.:     0.1843239 α      in ANC's #2, #3, #1, ...

........................................................................
.............................. CYCLE   30 ..............................
........................................................................
   1    -83.3543884 -0.833544E+02  0.345E-02    1.61       0.0  T
   2    -83.3543886 -0.189306E-06  0.205E-02    1.61       1.0  T
   3    -83.3543878  0.777458E-06  0.374E-03    1.61       3.5  T
   4    -83.3543885 -0.633229E-06  0.190E-03    1.61       6.8  T
   5    -83.3543887 -0.213101E-06  0.601E-04    1.61      21.5  T
   6    -83.3543887 -0.102950E-07  0.312E-04    1.61      41.4  T
     SCC iter.                  ...        0 min,  0.016 sec
     gradient                   ...        0 min,  0.028 sec
 * total energy  :   -82.2810038 Eh     change       -0.3644991E-04 Eh
   gradient norm :     0.0020714 Eh/α   predicted    -0.1765272E-04 ( -51.57%)
   displ. norm   :     0.1248833 α      lambda       -0.2183816E-04
   maximum displ.:     0.0800683 α      in ANC's #2, #3, #1, ...

........................................................................
.............................. CYCLE   31 ..............................
........................................................................
   1    -83.3544407 -0.833544E+02  0.125E-02    1.61       0.0  T
   2    -83.3544407 -0.380375E-07  0.748E-03    1.61       1.7  T
   3    -83.3544403  0.381515E-06  0.220E-03    1.61       5.9  T
   4    -83.3544407 -0.381242E-06  0.684E-04    1.61      18.9  T
   5    -83.3544407 -0.220044E-07  0.430E-04    1.61      30.0  T
     SCC iter.                  ...        0 min,  0.014 sec
     gradient                   ...        0 min,  0.028 sec
 * total energy  :   -82.2810219 Eh     change       -0.1804942E-04 Eh
   gradient norm :     0.0036460 Eh/α   predicted    -0.1109164E-04 ( -38.55%)
   displ. norm   :     0.1590522 α      lambda       -0.3297485E-04
   maximum displ.:     0.1027419 α      in ANC's #2, #3, #1, ...

........................................................................
.............................. CYCLE   32 ..............................
........................................................................
   1    -83.3547407 -0.833547E+02  0.176E-02    1.61       0.0  T
   2    -83.3547408 -0.109447E-06  0.105E-02    1.61       1.2  T
   3    -83.3547406  0.208638E-06  0.177E-03    1.61       7.3  T
   4    -83.3547408 -0.168534E-06  0.990E-04    1.61      13.0  T
   5    -83.3547408 -0.575144E-07  0.508E-04    1.61      25.4  T
     SCC iter.                  ...        0 min,  0.014 sec
     gradient                   ...        0 min,  0.028 sec
 * total energy  :   -82.2810485 Eh     change       -0.2664899E-04 Eh
   gradient norm :     0.0011726 Eh/α   predicted    -0.1690782E-04 ( -36.55%)
   displ. norm   :     0.2961963 α      lambda       -0.3196407E-04
   maximum displ.:     0.1943799 α      in ANC's #2, #3, #6, ...

........................................................................
.............................. CYCLE   33 ..............................
........................................................................
   1    -83.3542675 -0.833543E+02  0.318E-02    1.61       0.0  T
   2    -83.3542677 -0.184011E-06  0.189E-02    1.61       1.0  T
   3    -83.3542656  0.211018E-05  0.542E-03    1.61       2.4  T
   4    -83.3542675 -0.196443E-05  0.213E-03    1.61       6.1  T
   5    -83.3542678 -0.258769E-06  0.711E-04    1.61      18.2  T
   6    -83.3542678 -0.219168E-07  0.318E-04    1.61      40.7  T
     SCC iter.                  ...        0 min,  0.016 sec
     gradient                   ...        0 min,  0.028 sec
 * total energy  :   -82.2810826 Eh     change       -0.3407895E-04 Eh
   gradient norm :     0.0012869 Eh/α   predicted    -0.1660622E-04 ( -51.27%)
   displ. norm   :     0.1804017 α      lambda       -0.1818680E-04
   maximum displ.:     0.1203800 α      in ANC's #2, #3, #6, ...

........................................................................
.............................. CYCLE   34 ..............................
........................................................................
   1    -83.3543564 -0.833544E+02  0.178E-02    1.61       0.0  T
   2    -83.3543564 -0.120849E-07  0.106E-02    1.61       1.2  T
   3    -83.3543550  0.138544E-05  0.462E-03    1.61       2.8  T
   4    -83.3543564 -0.140884E-05  0.866E-04    1.61      14.9  T
   5    -83.3543564 -0.335557E-07  0.348E-04    1.61      37.1  T
   6    -83.3543564 -0.114183E-08  0.179E-04    1.61      72.0  T
     SCC iter.                  ...        0 min,  0.017 sec
     gradient                   ...        0 min,  0.027 sec
 * total energy  :   -82.2811067 Eh     change       -0.2410175E-04 Eh
   gradient norm :     0.0011148 Eh/α   predicted    -0.9225842E-05 ( -61.72%)
   displ. norm   :     0.2458594 α      lambda       -0.2950350E-04
   maximum displ.:     0.1621417 α      in ANC's #2, #3, #5, ...

........................................................................
.............................. CYCLE   35 ..............................
........................................................................
   1    -83.3545319 -0.833545E+02  0.255E-02    1.61       0.0  T
   2    -83.3545316  0.225239E-06  0.154E-02    1.61       1.0  T
   3    -83.3545184  0.132157E-04  0.141E-02    1.61       1.0  T
   4    -83.3545321 -0.136348E-04  0.782E-04    1.61      16.5  T
   5    -83.3545321 -0.120653E-07  0.484E-04    1.61      26.7  T
   6    -83.3545321 -0.224499E-08  0.262E-04    1.61      49.2  T
     SCC iter.                  ...        0 min,  0.016 sec
     gradient                   ...        0 min,  0.029 sec
 * total energy  :   -82.2811433 Eh     change       -0.3653935E-04 Eh
   gradient norm :     0.0009086 Eh/α   predicted    -0.1515017E-04 ( -58.54%)
   displ. norm   :     0.2886576 α      lambda       -0.2661532E-04
   maximum displ.:     0.1921067 α      in ANC's #2, #3, #5, ...

........................................................................
.............................. CYCLE   36 ..............................
........................................................................
   1    -83.3544815 -0.833545E+02  0.289E-02    1.61       0.0  T
   2    -83.3544814  0.136306E-06  0.175E-02    1.61       1.0  T
   3    -83.3544699  0.114911E-04  0.131E-02    1.61       1.0  T
   4    -83.3544817 -0.118333E-04  0.862E-04    1.61      15.0  T
   5    -83.3544817 -0.114419E-07  0.524E-04    1.61      24.6  T
   6    -83.3544817 -0.375300E-08  0.259E-04    1.61      49.9  T
     SCC iter.                  ...        0 min,  0.016 sec
     gradient                   ...        0 min,  0.028 sec
 * total energy  :   -82.2811726 Eh     change       -0.2932550E-04 Eh
   gradient norm :     0.0012173 Eh/α   predicted    -0.1380207E-04 ( -52.93%)
   displ. norm   :     0.1988890 α      lambda       -0.1290993E-04
   maximum displ.:     0.1362712 α      in ANC's #2, #3, #5, ...

........................................................................
.............................. CYCLE   37 ..............................
........................................................................
   1    -83.3546249 -0.833546E+02  0.186E-02    1.62       0.0  T
   2    -83.3546249  0.221423E-07  0.112E-02    1.62       1.1  T
   3    -83.3546217  0.318542E-05  0.693E-03    1.62       1.9  T
   4    -83.3546250 -0.327490E-05  0.580E-04    1.62      22.3  T
   5    -83.3546250 -0.768580E-08  0.342E-04    1.62      37.7  T
   6    -83.3546250 -0.190910E-08  0.165E-04    1.62      78.2  T
     SCC iter.                  ...        0 min,  0.016 sec
     gradient                   ...        0 min,  0.028 sec
 * total energy  :   -82.2811880 Eh     change       -0.1538300E-04 Eh
   gradient norm :     0.0009547 Eh/α   predicted    -0.6571998E-05 ( -57.28%)
   displ. norm   :     0.1590334 α      lambda       -0.1105933E-04
   maximum displ.:     0.1106966 α      in ANC's #2, #3, #5, ...

........................................................................
.............................. CYCLE   38 ..............................
........................................................................
   1    -83.3548130 -0.833548E+02  0.134E-02    1.62       0.0  T
   2    -83.3548130  0.315490E-07  0.814E-03    1.62       1.6  T
   3    -83.3548104  0.254505E-05  0.619E-03    1.62       2.1  T
   4    -83.3548130 -0.261540E-05  0.520E-04    1.62      24.8  T
   5    -83.3548131 -0.113124E-07  0.255E-04    1.62      50.5  T
   6    -83.3548131 -0.370775E-09  0.145E-04    1.62      89.1  T
     SCC iter.                  ...        0 min,  0.016 sec
     gradient                   ...        0 min,  0.028 sec
 * total energy  :   -82.2812030 Eh     change       -0.1507125E-04 Eh
   gradient norm :     0.0009666 Eh/α   predicted    -0.5596303E-05 ( -62.87%)
   displ. norm   :     0.2398623 α      lambda       -0.1951742E-04
   maximum displ.:     0.1664169 α      in ANC's #2, #3, #1, ...

........................................................................
.............................. CYCLE   39 ..............................
........................................................................
   1    -83.3547326 -0.833547E+02  0.209E-02    1.62       0.0  T
   2    -83.3547322  0.432747E-06  0.129E-02    1.62       1.0  T
   3    -83.3547160  0.161617E-04  0.157E-02    1.62       1.0  T
   4    -83.3547328 -0.168112E-04  0.836E-04    1.62      15.5  T
   5    -83.3547329 -0.285595E-07  0.389E-04    1.62      33.2  T
   6    -83.3547329 -0.135827E-09  0.220E-04    1.62      58.6  T
     SCC iter.                  ...        0 min,  0.016 sec
     gradient                   ...        0 min,  0.028 sec
 * total energy  :   -82.2812292 Eh     change       -0.2620277E-04 Eh
   gradient norm :     0.0006910 Eh/α   predicted    -0.1000975E-04 ( -61.80%)
   displ. norm   :     0.3912991 α      lambda       -0.2942254E-04
   maximum displ.:     0.2700518 α      in ANC's #2, #3, #1, ...

........................................................................
.............................. CYCLE   40 ..............................
........................................................................
   1    -83.3542701 -0.833543E+02  0.347E-02    1.62       0.0  T
   2    -83.3542679  0.216428E-05  0.218E-02    1.62       1.0  T
   3    -83.3542129  0.550412E-04  0.295E-02    1.62       1.0  T
   4    -83.3542710 -0.581100E-04  0.142E-03    1.62       9.1  T
   5    -83.3542711 -0.916901E-07  0.649E-04    1.62      19.9  T
   6    -83.3542711  0.363769E-09  0.383E-04    1.62      33.7  T
     SCC iter.                  ...        0 min,  0.016 sec
     gradient                   ...        0 min,  0.028 sec
 * total energy  :   -82.2812647 Eh     change       -0.3542508E-04 Eh
   gradient norm :     0.0010685 Eh/α   predicted    -0.1571547E-04 ( -55.64%)
   displ. norm   :     0.4406427 α      lambda       -0.2396883E-04
   maximum displ.:     0.3033875 α      in ANC's #2, #3, #1, ...

........................................................................
.............................. CYCLE   41 ..............................
........................................................................
   1    -83.3538590 -0.833539E+02  0.395E-02    1.62       0.0  T
   2    -83.3538564  0.258043E-05  0.248E-02    1.62       1.0  T
   3    -83.3537862  0.701855E-04  0.331E-02    1.62       1.0  T
   4    -83.3538601 -0.738672E-04  0.165E-03    1.62       7.8  T
   5    -83.3538602 -0.119224E-06  0.736E-04    1.62      17.5  T
   6    -83.3538602  0.551026E-09  0.428E-04    1.62      30.2  T
     SCC iter.                  ...        0 min,  0.016 sec
     gradient                   ...        0 min,  0.028 sec
 * total energy  :   -82.2812900 Eh     change       -0.2536809E-04 Eh
   gradient norm :     0.0014882 Eh/α   predicted    -0.1302021E-04 ( -48.67%)
   displ. norm   :     0.2711134 α      lambda       -0.1109995E-04
   maximum displ.:     0.1869321 α      in ANC's #2, #3, #1, ...

........................................................................
.............................. CYCLE   42 ..............................
........................................................................
   1    -83.3539070 -0.833539E+02  0.244E-02    1.62       0.0  T
   2    -83.3539058  0.115978E-05  0.154E-02    1.62       1.0  T
   3    -83.3538784  0.273595E-04  0.209E-02    1.62       1.0  T
   4    -83.3539074 -0.289873E-04  0.999E-04    1.62      12.9  T
   5    -83.3539075 -0.459231E-07  0.457E-04    1.62      28.2  T
   6    -83.3539075  0.640327E-09  0.266E-04    1.62      48.5  T
     SCC iter.                  ...        0 min,  0.016 sec
     gradient                   ...        0 min,  0.028 sec
 * total energy  :   -82.2813029 Eh     change       -0.1281940E-04 Eh
   gradient norm :     0.0010770 Eh/α   predicted    -0.5731566E-05 ( -55.29%)
   displ. norm   :     0.2381871 α      lambda       -0.1124344E-04
   maximum displ.:     0.1626383 α      in ANC's #2, #3, #1, ...
 * RMSD in coord.:     0.5469965 α      energy gain  -0.6558745E-03 Eh

generating ANC from model Hessian ...
Using Lindh-Hessian (1995)
 Shifting diagonal of input Hessian by    1.0099231005800293E-002
 Lowest  eigenvalues of input Hessian
    0.010000    0.000000    0.000000    0.000000    0.000000    0.000000
    0.000000    0.010196    0.010222    0.010241    0.010878    0.011809
    0.012374    0.013184    0.013396    0.013440    0.014866    0.015276
 Highest eigenvalues
    1.722030    1.891175    1.894069    1.913597    8.601931    8.659043


........................................................................
.............................. CYCLE   43 ..............................
........................................................................
   1    -83.3542827 -0.833543E+02  0.222E-02    1.62       0.0  T
   2    -83.3542822  0.462133E-06  0.136E-02    1.62       1.0  T
   3    -83.3542651  0.171763E-04  0.163E-02    1.62       1.0  T
   4    -83.3542829 -0.178778E-04  0.931E-04    1.62      13.9  T
   5    -83.3542830 -0.386051E-07  0.414E-04    1.62      31.2  T
   6    -83.3542830 -0.126015E-08  0.231E-04    1.62      55.8  T
     SCC iter.                  ...        0 min,  0.017 sec
     gradient                   ...        0 min,  0.028 sec
 * total energy  :   -82.2813168 Eh     change       -0.1394743E-04 Eh
   gradient norm :     0.0006022 Eh/α   predicted     0.0000000E+00 (-100.00%)
   displ. norm   :     0.0243344 α      lambda       -0.8256359E-06
   maximum displ.:     0.0116595 α      in ANC's #7, #5, #1, ...

........................................................................
.............................. CYCLE   44 ..............................
........................................................................
   1    -83.3544109 -0.833544E+02  0.377E-03    1.62       0.0  T
   2    -83.3544109 -0.243939E-08  0.227E-03    1.62       5.7  T
   3    -83.3544107  0.149687E-06  0.149E-03    1.62       8.6  T
   4    -83.3544109 -0.150642E-06  0.292E-04    1.62      44.1  T
   5    -83.3544109 -0.490621E-08  0.824E-05    1.62     156.6  T
     SCC iter.                  ...        0 min,  0.014 sec
     gradient                   ...        0 min,  0.029 sec
 * total energy  :   -82.2813219 Eh     change       -0.5107068E-05 Eh
   gradient norm :     0.0007120 Eh/α   predicted    -0.1938630E-05 ( -62.04%)
   displ. norm   :     0.1265536 α      lambda       -0.1627760E-04
   maximum displ.:     0.0603664 α      in ANC's #7, #5, #1, ...

........................................................................
.............................. CYCLE   45 ..............................
........................................................................
   1    -83.3546978 -0.833547E+02  0.184E-02    1.62       0.0  T
   2    -83.3546977  0.995068E-07  0.112E-02    1.62       1.1  T
   3    -83.3546901  0.756070E-05  0.104E-02    1.62       1.2  T
   4    -83.3546979 -0.778114E-05  0.997E-04    1.62      13.0  T
   5    -83.3546979 -0.452912E-07  0.423E-04    1.62      30.5  T
   6    -83.3546980 -0.657521E-08  0.198E-04    1.62      65.1  T
     SCC iter.                  ...        0 min,  0.017 sec
     gradient                   ...        0 min,  0.027 sec
 * total energy  :   -82.2813348 Eh     change       -0.1284916E-04 Eh
   gradient norm :     0.0034315 Eh/α   predicted    -0.8203857E-05 ( -36.15%)
   displ. norm   :     0.0295461 α      lambda       -0.4250150E-05
   maximum displ.:     0.0143947 α      in ANC's #1, #5, #7, ...

........................................................................
.............................. CYCLE   46 ..............................
........................................................................
   1    -83.3546961 -0.833547E+02  0.408E-03    1.62       0.0  T
   2    -83.3546961 -0.444027E-08  0.245E-03    1.62       5.3  T
   3    -83.3546960  0.939957E-07  0.117E-03    1.62      11.1  T
   4    -83.3546961 -0.873896E-07  0.434E-04    1.62      29.8  T
   5    -83.3546961 -0.117319E-07  0.110E-04    1.62     117.6  T
     SCC iter.                  ...        0 min,  0.014 sec
     gradient                   ...        0 min,  0.028 sec
 * total energy  :   -82.2813372 Eh     change       -0.2454214E-05 Eh
   gradient norm :     0.0013378 Eh/α   predicted    -0.2130180E-05 ( -13.20%)
   displ. norm   :     0.0296703 α      lambda       -0.1799381E-05
   maximum displ.:     0.0161135 α      in ANC's #1, #5, #4, ...

........................................................................
.............................. CYCLE   47 ..............................
........................................................................
   1    -83.3546980 -0.833547E+02  0.438E-03    1.62       0.0  T
   2    -83.3546980  0.103401E-07  0.266E-03    1.62       4.9  T
   3    -83.3546974  0.524759E-06  0.288E-03    1.62       4.5  T
   4    -83.3546980 -0.542743E-06  0.314E-04    1.62      41.2  T
   5    -83.3546980 -0.590254E-08  0.128E-04    1.62     100.5  T
     SCC iter.                  ...        0 min,  0.014 sec
     gradient                   ...        0 min,  0.028 sec
 * total energy  :   -82.2813394 Eh     change       -0.2146763E-05 Eh
   gradient norm :     0.0013329 Eh/α   predicted    -0.9077835E-06 ( -57.71%)
   displ. norm   :     0.0483410 α      lambda       -0.2900991E-05
   maximum displ.:     0.0257400 α      in ANC's #1, #2, #4, ...

........................................................................
.............................. CYCLE   48 ..............................
........................................................................
   1    -83.3546328 -0.833546E+02  0.730E-03    1.62       0.0  T
   2    -83.3546327  0.105283E-06  0.457E-03    1.62       2.8  T
   3    -83.3546304  0.231746E-05  0.618E-03    1.62       2.1  T
   4    -83.3546329 -0.246277E-05  0.488E-04    1.62      26.4  T
   5    -83.3546329 -0.171239E-07  0.181E-04    1.62      71.4  T
   6    -83.3546329 -0.112819E-08  0.101E-04    1.62     127.8  T
     SCC iter.                  ...        0 min,  0.016 sec
     gradient                   ...        0 min,  0.028 sec
 * total energy  :   -82.2813427 Eh     change       -0.3338823E-05 Eh
   gradient norm :     0.0004587 Eh/α   predicted    -0.1453389E-05 ( -56.47%)
   displ. norm   :     0.0598857 α      lambda       -0.2560595E-05
   maximum displ.:     0.0319923 α      in ANC's #1, #2, #4, ...

   *** GEOMETRY OPTIMIZATION CONVERGED AFTER 48 ITERATIONS ***

------------------------------------------------------------------------
 total energy gain   :        -0.1774403 Eh     -111.3455 kcal/mol
 total RMSD          :         0.5749969 a0        0.3043 Å
 total power (kW/mol):        -9.7056153 (step) -178.6150 (real)
------------------------------------------------------------------------

 ANCopt (total)                0 d,  0 h,  0 min,  2.608 sec
 optimizer setup                ...        0 min,  0.000 sec (  0.003%)
 model hessian                  ...        0 min,  0.096 sec (  3.692%)
 ANC generation                 ...        0 min,  0.008 sec (  0.310%)
 coordinate transformation      ...        0 min,  0.001 sec (  0.029%)
 single point calculation       ...        0 min,  2.487 sec ( 95.333%)
 optimization log               ...        0 min,  0.010 sec (  0.374%)
 hessian update                 ...        0 min,  0.001 sec (  0.042%)
 rational function              ...        0 min,  0.004 sec (  0.142%)

================
 final structure:
================
60
 xtb: 6.5.0 (homebrew)
C            3.50970686870775      -37.81693786353109       15.97181095540041
C            3.70490722586562      -38.19744459757563       17.43789537819193
O            3.27148305026015      -37.12433620448356       18.27014761189471
C            2.81400869348484      -39.40266232049171       17.76579511757418
C            5.20034059143537      -38.40702416458033       17.87494728825234
C            5.64093362958058      -39.86522735001265       17.98327129686360
C            6.19335356022562      -37.64883135642197       16.98430787350365
O            5.25070258838517      -37.79752018696050       19.16317006527548
B            4.15297184294658      -36.98967516856479       19.31204141625924
C            3.92223530105160      -36.06377738719781       20.52924893158675
C            4.95354800265403      -35.81089177268202       21.40750039122289
C            4.98389374337295      -34.97218069368069       22.50953471960153
H            5.93680150466063      -34.80493465183424       22.99033694772372
C            3.84200955292799      -34.13823096145198       23.03884657049462
H            4.06394458537051      -33.79360682359270       24.04942371085137
C            2.48438550424273      -34.77852574848402       23.04279423231814
B            1.73508791859571      -34.86945594223124       24.40800110027694
O            2.25351810831268      -34.40660081261931       25.58699126834117
C            1.40080114297882      -34.81505272698022       26.65541418659410
C            1.26698401572608      -33.67705117734105       27.66476318719705
C            2.08122144198457      -36.01097025257723       27.33395291590782
C            0.07025959243682      -35.20809668337500       25.91671303785008
C           -0.94971831396017      -34.06310209718518       25.87590718275021
C           -0.61266915494205      -36.46700737656161       26.44670545400466
O            0.49975339310974      -35.42940803783743       24.57342181273085
C            1.95191466226633      -35.29075250573575       21.93323810176638
C            2.59436128373805      -35.29608074753454       20.58404840275985
H            1.91766697848700      -35.76816214076680       19.86944166547237
C            2.96864502944055      -33.93022513332994       20.04733356921793
C            3.70542825881245      -32.99948616760500       20.71730198114073
C            4.12061083880263      -33.04401173785693       22.04472090857032
H            4.81110558995615      -32.28310960287860       22.37921866060576
H            2.44565052225650      -37.71592625894607       15.77282376085989
H            3.91636534273273      -38.59012214299128       15.32537067926618
H            3.98546821202943      -36.86818354175032       15.74553487819923
H            1.77742154734852      -39.12245125957676       17.59324713125143
H            2.91881882568921      -39.67248595072758       18.81366919700557
H            3.05895810007675      -40.25505544837100       17.13924797962168
H            5.52723541237997      -40.36468858258456       17.02484898703556
H            5.06790736231943      -40.39311511263681       18.73849635151112
H            6.68818495560155      -39.89546064932067       18.27390976007148
H            6.24216371186954      -38.08339192875862       15.99042274690343
H            7.17792683789442      -37.70244134377416       17.44329566351936
H            5.91232200144865      -36.60079163094353       16.91563280770283
H            5.87699990848361      -36.33892554921294       21.19455405567337
H            2.23671848859261      -33.49665299737689       28.12214381052878
H            0.55661295379934      -33.94583218622899       28.44185927339340
H            0.94709155418095      -32.75944599998388       27.18209623237355
H            3.06708192589167      -35.70088161439014       27.67278673360438
H            2.21118998579861      -36.82190633796434       26.62166178810976
H            1.50693180085481      -36.35811480212494       28.18759859375785
H           -1.35434615930357      -33.86173126975201       26.86328172243293
H           -1.76159439568065      -34.34861306265864       25.21115429941495
H           -0.48914125862172      -33.16377189591098       25.47482913988879
H           -0.86187449695633      -36.34586082172875       27.49747139684721
H            0.02113935556470      -37.33864790376771       26.32147584203260
H           -1.52837612797788      -36.63333917878041       25.88492025709109
H            0.97771140748501      -35.75508691757245       22.00483998489074
H            2.78527755768599      -33.78367366962217       18.99344076829631
H            4.01371763761019      -32.12002154858597       20.16096021651394

 Bond Distances (Angstroems)
 ---------------------------
C1-C2=1.5272         C1-H33=1.0872        C1-H34=1.0868        C1-H35=1.0852        C2-C1=1.5272         C2-O3=1.4255         
C2-C4=1.5342         C2-C5=1.5720         O3-C2=1.4255         O3-B9=1.3714         C4-C2=1.5342         C4-H36=1.0876        
C4-H37=1.0871        C4-H38=1.0859        C5-C2=1.5720         C5-C6=1.5272         C5-C7=1.5343         C5-O8=1.4260         
C6-C5=1.5272         C6-H39=1.0867        C6-H40=1.0851        C6-H41=1.0873        C7-C5=1.5343         C7-H42=1.0858        
C7-H43=1.0876        C7-H44=1.0872        O8-C5=1.4260         O8-B9=1.3711         B9-O3=1.3714         B9-O8=1.3711         
B9-C10=1.5466        C10-B9=1.5466        C10-C11=1.3780       C10-C27=1.5348       C11-C10=1.3780       C11-C12=1.3852       
C11-H45=1.0849       C12-C11=1.3852       C12-H13=1.0804       C12-C14=1.5098       H13-C12=1.0804       C14-C12=1.5098       
C14-H15=1.0905       C14-C16=1.5010       C14-C31=1.5044       H15-C14=1.0905       C16-C14=1.5010       C16-B17=1.5600       
C16-C26=1.3330       B17-C16=1.5600       B17-O18=1.3686       B17-O25=1.3664       O18-B17=1.3686       O18-C19=1.4267       
C19-O18=1.4267       C19-C20=1.5270       C19-C21=1.5341       C19-C22=1.5718       C20-C19=1.5270       C20-H46=1.0873       
C20-H47=1.0866       C20-H48=1.0850       C21-C19=1.5341       C21-H49=1.0876       C21-H50=1.0871       C21-H51=1.0858       
C22-C19=1.5718       C22-C23=1.5340       C22-C24=1.5271       C22-O25=1.4275       C23-C22=1.5340       C23-H52=1.0859       
C23-H53=1.0875       C23-H54=1.0871       C24-C22=1.5271       C24-H55=1.0867       C24-H56=1.0850       C24-H57=1.0871       
O25-B17=1.3664       O25-C22=1.4275       C26-C16=1.3330       C26-C27=1.4943       C26-H58=1.0816       C27-C10=1.5348       
C27-C26=1.4943       C27-H28=1.0915       C27-C29=1.5145       H28-C27=1.0915       C29-C27=1.5145       C29-C30=1.3631       
C29-H59=1.0797       C30-C29=1.3631       C30-C31=1.3915       C30-H60=1.0854       C31-C14=1.5044       C31-C30=1.3915       
C31-H32=1.0806       H32-C31=1.0806       H33-C1=1.0872        H34-C1=1.0868        H35-C1=1.0852        H36-C4=1.0876        
H37-C4=1.0871        H38-C4=1.0859        H39-C6=1.0867        H40-C6=1.0851        H41-C6=1.0873        H42-C7=1.0858        
H43-C7=1.0876        H44-C7=1.0872        H45-C11=1.0849       H46-C20=1.0873       H47-C20=1.0866       H48-C20=1.0850       
H49-C21=1.0876       H50-C21=1.0871       H51-C21=1.0858       H52-C23=1.0859       H53-C23=1.0875       H54-C23=1.0871       
H55-C24=1.0867       H56-C24=1.0850       H57-C24=1.0871       H58-C26=1.0816       H59-C29=1.0797       H60-C30=1.0854       
 C  H  Rav=1.0860 sigma=0.0025  Rmin=1.0797  Rmax=1.0915    32
 C  B  Rav=1.5533 sigma=0.0067  Rmin=1.5466  Rmax=1.5600     2
 C  C  Rav=1.4904 sigma=0.0704  Rmin=1.3330  Rmax=1.5720    21
 O  B  Rav=1.3693 sigma=0.0020  Rmin=1.3664  Rmax=1.3714     4
 O  C  Rav=1.4264 sigma=0.0008  Rmin=1.4255  Rmax=1.4275     4

 selected bond angles (degree)
 --------------------
H33-C1-C2=108.90               H34-C1-C2=110.24               H34-C1-H33=108.87              H35-C1-C2=111.22               
H35-C1-H33=108.04              H35-C1-H34=109.51              O3-C2-C1=109.51                C4-C2-C1=109.07                
C4-C2-O3=106.86                C5-C2-C1=114.94                C5-C2-O3=103.14                C5-C2-C4=112.85                
B9-O3-C2=108.79                H36-C4-C2=108.49               H37-C4-C2=110.18               H37-C4-H36=107.98              
H38-C4-C2=111.24               H38-C4-H36=109.01              H38-C4-H37=109.85              C6-C5-C2=114.93                
C7-C5-C2=112.86                C7-C5-C6=109.04                O8-C5-C2=103.17                O8-C5-C6=109.50                
O8-C5-C7=106.88                H39-C6-C5=110.25               H40-C6-C5=111.19               H40-C6-H39=109.57              
H41-C6-C5=108.87               H41-C6-H39=108.89              H41-C6-H40=108.00              H42-C7-C5=111.26               
H43-C7-C5=108.45               H43-C7-H42=109.02              H44-C7-C5=110.23               H44-C7-H42=109.85              
H44-C7-H43=107.95              B9-O8-C5=108.76                O8-B9-O3=111.98                C10-B9-O3=124.11               
C10-B9-O8=123.89               C11-C10-B9=119.99              C27-C10-B9=117.17              C27-C10-C11=122.21             

 selected dihedral angles (degree)
 ---------------------------------
O3-C2-C1-H33=294.44           O3-C2-C1-H34=175.05           O3-C2-C1-H35= 53.39           C4-C2-C1-H33= 51.05           
C4-C2-C1-H34=291.67           C4-C2-C1-H35=170.01           C5-C2-C1-H33=178.92           C5-C2-C1-H34= 59.54           
C5-C2-C1-H35=297.87           B9-O3-C2-C1=220.41            B9-O3-C2-C4=102.40            B9-O3-C2-C5=343.24            
H36-C4-C2-C1=299.54           H36-C4-C2-O3= 57.84           H36-C4-C2-C5=170.51           H37-C4-C2-C1=181.52           
H37-C4-C2-O3=299.82           H37-C4-C2-C5= 52.49           H38-C4-C2-C1= 59.44           H38-C4-C2-O3=177.74           
H38-C4-C2-C5=290.41           C6-C5-C2-C1=258.41            C6-C5-C2-O3=139.28            C6-C5-C2-C4= 24.35            
C7-C5-C2-C1= 24.31            C7-C5-C2-O3=265.18            C7-C5-C2-C4=150.25            O8-C5-C2-C1=139.28            
O8-C5-C2-O3= 20.15            O8-C5-C2-C4=265.22            H39-C6-C5-C2= 59.69           H39-C6-C5-C7=291.85           
H39-C6-C5-O8=175.23           H40-C6-C5-C2=297.96           H40-C6-C5-C7=170.11           H40-C6-C5-O8= 53.49           
H41-C6-C5-C2=179.08           H41-C6-C5-C7= 51.24           H41-C6-C5-O8=294.62           H42-C7-C5-C2=290.39           
H42-C7-C5-C6= 59.39           H42-C7-C5-O8=177.67           H43-C7-C5-C2=170.49           H43-C7-C5-C6=299.49           
H43-C7-C5-O8= 57.78           H44-C7-C5-C2= 52.51           H44-C7-C5-C6=181.51           H44-C7-C5-O8=299.80           
B9-O8-C5-C2=343.34            B9-O8-C5-C6=220.52            B9-O8-C5-C7=102.54            O8-B9-O3-C2=  7.24            
C10-B9-O3-C2=188.67           O3-B9-O8-C5=  7.06            C10-B9-O8-C5=185.63           C11-C10-B9-O3=191.39          
C11-C10-B9-O8= 12.99          C27-C10-B9-O3=  2.43          C27-C10-B9-O8=184.03          
           -------------------------------------------------
          |                Final Singlepoint                |
           -------------------------------------------------

          ...................................................
          :                      SETUP                      :
          :.................................................:
          :  # basis functions                 144          :
          :  # atomic orbitals                 144          :
          :  # shells                           88          :
          :  # electrons                       150          :
          :  max. iterations                   250          :
          :  Hamiltonian                  GFN2-xTB          :
          :  restarted?                      false          :
          :  GBSA solvation                  false          :
          :  PC potential                    false          :
          :  electronic temp.          300.0000000     K    :
          :  accuracy                    1.0000000          :
          :  -> integral cutoff          0.2500000E+02      :
          :  -> integral neglect         0.1000000E-07      :
          :  -> SCF convergence          0.1000000E-05 Eh   :
          :  -> wf. convergence          0.1000000E-03 e    :
          :  Broyden damping             0.4000000          :
          ...................................................

 iter      E             dE          RMSdq      gap      omega  full diag
   1    -83.3546329 -0.833546E+02  0.380E-05    1.62       0.0  T
   2    -83.3546329 -0.457590E-11  0.312E-05    1.62     413.9  T
   3    -83.3546329 -0.381704E-10  0.148E-05    1.62     871.2  T

   *** convergence criteria satisfied after 3 iterations ***

         #    Occupation            Energy/Eh            Energy/eV
      -------------------------------------------------------------
         1        2.0000           -0.6869122             -18.6918
       ...           ...                  ...                  ...
        69        2.0000           -0.4005338             -10.8991
        70        2.0000           -0.3965990             -10.7920
        71        2.0000           -0.3961585             -10.7800
        72        2.0000           -0.3946189             -10.7381
        73        2.0000           -0.3916282             -10.6567
        74        2.0000           -0.3639641              -9.9040
        75        2.0000           -0.3293158              -8.9611 (HOMO)
        76                         -0.2696436              -7.3374 (LUMO)
        77                         -0.2184162              -5.9434
        78                         -0.1865302              -5.0757
        79                         -0.1427801              -3.8852
        80                         -0.0964752              -2.6252
       ...                                ...                  ...
       144                          0.6788260              18.4718
      -------------------------------------------------------------
                  HL-Gap            0.0596722 Eh            1.6238 eV
             Fermi-level           -0.2994797 Eh           -8.1493 eV

 SCC (total)                   0 d,  0 h,  0 min,  0.043 sec
 SCC setup                      ...        0 min,  0.000 sec (  0.521%)
 Dispersion                     ...        0 min,  0.000 sec (  0.861%)
 classical contributions        ...        0 min,  0.000 sec (  0.404%)
 integral evaluation            ...        0 min,  0.006 sec ( 13.800%)
 iterations                     ...        0 min,  0.009 sec ( 20.183%)
 molecular gradient             ...        0 min,  0.028 sec ( 63.432%)
 printout                       ...        0 min,  0.000 sec (  0.786%)

         :::::::::::::::::::::::::::::::::::::::::::::::::::::
         ::                     SUMMARY                     ::
         :::::::::::::::::::::::::::::::::::::::::::::::::::::
         :: total energy             -82.281342696126 Eh    ::
         :: gradient norm              0.000458677503 Eh/a0 ::
         :: HOMO-LUMO gap              1.623763144186 eV    ::
         ::.................................................::
         :: SCC energy               -83.354632907939 Eh    ::
         :: -> isotropic ES            0.147507012532 Eh    ::
         :: -> anisotropic ES          0.012578435104 Eh    ::
         :: -> anisotropic XC          0.027520317079 Eh    ::
         :: -> dispersion             -0.062330697586 Eh    ::
         :: repulsion energy           1.072394250378 Eh    ::
         :: add. restraining           0.000145602986 Eh    ::
         :: total charge              -0.000000000000 e     ::
         :::::::::::::::::::::::::::::::::::::::::::::::::::::

           -------------------------------------------------
          |                Property Printout                |
           -------------------------------------------------

    * Orbital Energies and Occupations

         #    Occupation            Energy/Eh            Energy/eV
      -------------------------------------------------------------
         1        2.0000           -0.6869122             -18.6918
       ...           ...                  ...                  ...
        63        2.0000           -0.4360480             -11.8655
        64        2.0000           -0.4293277             -11.6826
        65        2.0000           -0.4229254             -11.5084
        66        2.0000           -0.4195754             -11.4172
        67        2.0000           -0.4184680             -11.3871
        68        2.0000           -0.4135658             -11.2537
        69        2.0000           -0.4005338             -10.8991
        70        2.0000           -0.3965990             -10.7920
        71        2.0000           -0.3961585             -10.7800
        72        2.0000           -0.3946189             -10.7381
        73        2.0000           -0.3916282             -10.6567
        74        2.0000           -0.3639641              -9.9040
        75        2.0000           -0.3293158              -8.9611 (HOMO)
        76                         -0.2696436              -7.3374 (LUMO)
        77                         -0.2184162              -5.9434
        78                         -0.1865302              -5.0757
        79                         -0.1427801              -3.8852
        80                         -0.0964752              -2.6252
        81                         -0.0842852              -2.2935
        82                          0.0096927               0.2638
        83                          0.0144165               0.3923
        84                          0.0293471               0.7986
        85                          0.0309779               0.8430
        86                          0.0572917               1.5590
       ...                                ...                  ...
       144                          0.6788260              18.4718
      -------------------------------------------------------------
                  HL-Gap            0.0596722 Eh            1.6238 eV
             Fermi-level           -0.2994797 Eh           -8.1493 eV

     #   Z          covCN         q      C6AA      α(0)
     1   6 C        3.755    -0.116    22.786     6.806
     2   6 C        3.858     0.130    18.445     6.108
     3   8 O        1.638    -0.376    20.392     6.096
     4   6 C        3.755    -0.116    22.768     6.804
     5   6 C        3.859     0.130    18.444     6.108
     6   6 C        3.755    -0.117    22.794     6.808
     7   6 C        3.755    -0.115    22.759     6.802
     8   8 O        1.638    -0.376    20.396     6.096
     9   5 B        2.658     0.430    15.591     6.649
    10   6 C        2.883    -0.086    30.144     9.001
    11   6 C        2.892    -0.034    28.845     8.805
    12   6 C        3.077    -0.026    28.573     8.764
    13   1 H        0.926     0.030     2.582     2.513
    14   6 C        3.863    -0.009    20.701     6.470
    15   1 H        0.924     0.049     2.328     2.386
    16   6 C        2.864    -0.084    30.102     8.993
    17   5 B        2.661     0.431    15.571     6.642
    18   8 O        1.638    -0.372    20.324     6.085
    19   6 C        3.860     0.129    18.457     6.110
    20   6 C        3.755    -0.117    22.799     6.808
    21   6 C        3.755    -0.116    22.781     6.806
    22   6 C        3.860     0.129    18.457     6.110
    23   6 C        3.755    -0.116    22.786     6.806
    24   6 C        3.755    -0.118    22.807     6.810
    25   8 O        1.638    -0.370    20.278     6.078
    26   6 C        2.898    -0.025    28.618     8.771
    27   6 C        3.859    -0.015    20.801     6.486
    28   1 H        0.924     0.047     2.356     2.400
    29   6 C        2.910    -0.031    28.762     8.794
    30   6 C        2.888    -0.036    28.899     8.813
    31   6 C        3.079    -0.022    28.464     8.747
    32   1 H        0.926     0.031     2.572     2.508
    33   1 H        0.925     0.054     2.276     2.359
    34   1 H        0.925     0.039     2.467     2.456
    35   1 H        0.925     0.051     2.310     2.377
    36   1 H        0.925     0.051     2.302     2.373
    37   1 H        0.925     0.043     2.405     2.425
    38   1 H        0.925     0.041     2.431     2.438
    39   1 H        0.925     0.039     2.463     2.454
    40   1 H        0.925     0.052     2.299     2.371
    41   1 H        0.925     0.053     2.278     2.360
    42   1 H        0.925     0.042     2.426     2.436
    43   1 H        0.925     0.051     2.308     2.376
    44   1 H        0.925     0.042     2.418     2.432
    45   1 H        0.925     0.036     2.507     2.476
    46   1 H        0.925     0.054     2.270     2.356
    47   1 H        0.925     0.040     2.454     2.450
    48   1 H        0.925     0.052     2.297     2.370
    49   1 H        0.925     0.052     2.297     2.370
    50   1 H        0.925     0.044     2.398     2.422
    51   1 H        0.925     0.042     2.418     2.432
    52   1 H        0.925     0.043     2.413     2.429
    53   1 H        0.925     0.053     2.288     2.365
    54   1 H        0.925     0.044     2.400     2.422
    55   1 H        0.925     0.040     2.451     2.448
    56   1 H        0.925     0.052     2.292     2.367
    57   1 H        0.925     0.055     2.264     2.353
    58   1 H        0.925     0.037     2.485     2.465
    59   1 H        0.926     0.031     2.570     2.507
    60   1 H        0.925     0.026     2.647     2.544

 Mol. C6AA /au·bohr⁶  :      33346.428655
 Mol. C8AA /au·bohr⁸  :     773676.780030
 Mol. α(0) /au        :        277.617947


Wiberg/Mayer (AO) data.
largest (>0.10) Wiberg bond orders for each atom

 ---------------------------------------------------------------------------
     #   Z sym  total        # sym  WBO       # sym  WBO       # sym  WBO
 ---------------------------------------------------------------------------
     1   6 C    3.994 --     2 C    0.996    34 H    0.985    33 H    0.983
                            35 H    0.982
     2   6 C    3.944 --     1 C    0.996     4 C    0.990     3 O    0.955
                             5 C    0.936
     3   8 O    2.220 --     9 B    1.114     2 C    0.955
     4   6 C    3.994 --     2 C    0.990    38 H    0.985    37 H    0.984
                            36 H    0.983
     5   6 C    3.943 --     6 C    0.996     7 C    0.990     8 O    0.955
                             2 C    0.936
     6   6 C    3.994 --     5 C    0.996    39 H    0.985    41 H    0.983
                            40 H    0.982
     7   6 C    3.995 --     5 C    0.990    42 H    0.985    44 H    0.984
                            43 H    0.983
     8   8 O    2.220 --     9 B    1.115     5 C    0.955
     9   5 B    3.385 --     8 O    1.115     3 O    1.114    10 C    1.027
    10   6 C    3.952 --    11 C    1.504     9 B    1.027    27 C    0.948
                            29 C    0.187    31 C    0.153
    11   6 C    3.991 --    10 C    1.504    12 C    1.420    45 H    0.960
    12   6 C    3.947 --    11 C    1.420    13 H    0.972    14 C    0.958
                            31 C    0.367    29 C    0.148
    13   1 H    0.999 --    12 C    0.972
    14   6 C    3.989 --    16 C    1.001    31 C    0.973    15 H    0.967
                            12 C    0.958
    15   1 H    0.997 --    14 C    0.967
    16   6 C    3.977 --    26 C    1.851    14 C    1.001    17 B    1.000
    17   5 B    3.376 --    25 O    1.133    18 O    1.127    16 C    1.000
    18   8 O    2.233 --    17 B    1.127    19 C    0.953
    19   6 C    3.943 --    20 C    0.997    21 C    0.991    18 O    0.953
                            22 C    0.937
    20   6 C    3.994 --    19 C    0.997    47 H    0.985    46 H    0.983
                            48 H    0.982
    21   6 C    3.994 --    19 C    0.991    51 H    0.984    50 H    0.984
                            49 H    0.983
    22   6 C    3.942 --    24 C    0.996    23 C    0.991    25 O    0.953
                            19 C    0.937
    23   6 C    3.995 --    22 C    0.991    52 H    0.984    54 H    0.984
                            53 H    0.983
    24   6 C    3.994 --    22 C    0.996    55 H    0.984    57 H    0.983
                            56 H    0.982
    25   8 O    2.236 --    17 B    1.133    22 C    0.953
    26   6 C    3.986 --    16 C    1.851    27 C    1.009    58 H    0.967
    27   6 C    3.993 --    26 C    1.009    29 C    0.981    28 H    0.971
                            10 C    0.948
    28   1 H    0.998 --    27 C    0.971
    29   6 C    3.966 --    30 C    1.574    27 C    0.981    59 H    0.972
                            10 C    0.187    12 C    0.148
    30   6 C    3.992 --    29 C    1.574    31 C    1.380    60 H    0.962
    31   6 C    3.932 --    30 C    1.380    32 H    0.974    14 C    0.973
                            12 C    0.367    10 C    0.153
    32   1 H    0.999 --    31 C    0.974
    33   1 H    0.997 --     1 C    0.983
    34   1 H    0.998 --     1 C    0.985
    35   1 H    0.997 --     1 C    0.982
    36   1 H    0.997 --     4 C    0.983
    37   1 H    0.998 --     4 C    0.984
    38   1 H    0.998 --     4 C    0.985
    39   1 H    0.998 --     6 C    0.985
    40   1 H    0.997 --     6 C    0.982
    41   1 H    0.997 --     6 C    0.983
    42   1 H    0.998 --     7 C    0.985
    43   1 H    0.997 --     7 C    0.983
    44   1 H    0.998 --     7 C    0.984
    45   1 H    0.998 --    11 C    0.960
    46   1 H    0.997 --    20 C    0.983
    47   1 H    0.998 --    20 C    0.985
    48   1 H    0.997 --    20 C    0.982
    49   1 H    0.997 --    21 C    0.983
    50   1 H    0.998 --    21 C    0.984
    51   1 H    0.998 --    21 C    0.984
    52   1 H    0.998 --    23 C    0.984
    53   1 H    0.997 --    23 C    0.983
    54   1 H    0.998 --    23 C    0.984
    55   1 H    0.998 --    24 C    0.984
    56   1 H    0.997 --    24 C    0.982
    57   1 H    0.997 --    24 C    0.983
    58   1 H    0.998 --    26 C    0.967
    59   1 H    0.999 --    29 C    0.972
    60   1 H    0.999 --    30 C    0.962
 ---------------------------------------------------------------------------

Topologies differ in total number of bonds
Writing topology from bond orders to xtbtopo.mol

molecular dipole:
                 x           y           z       tot (Debye)
 q only:       -0.240      -0.301       0.234
   full:       -0.052      -0.352       0.108       0.946
molecular quadrupole (traceless):
                xx          xy          yy          xz          yz          zz
 q only:      -41.502      20.186      26.421     -24.319     -33.620      15.081
  q+dip:      -37.800       3.174      35.031     -13.810     -22.129       2.769
   full:      -38.371       1.979      36.626     -15.358     -23.425       1.745

           -------------------------------------------------
          |                Geometry Summary                 |
           -------------------------------------------------

      molecular mass/u    :      382.1099696
   center of mass at/Å    :        2.9449495     -35.9219021      21.8311708
  moments of inertia/u·Å² :        0.1294177E+04   0.6679687E+04   0.7010285E+04
rotational constants/cm⁻¹ :        0.1302575E-01   0.2523716E-02   0.2404700E-02

 * 55 selected distances

     #   Z          #   Z                                           value/Å
     1   6 C        2   6 C                                       1.5271845
     2   6 C        3   8 O                                       1.4255042
     2   6 C        4   6 C                                       1.5341997
     5   6 C        6   6 C                                       1.5271586
     5   6 C        7   6 C                                       1.5343305
     5   6 C        8   8 O                                       1.4260259
     3   8 O        9   5 B                                       1.3713858
     8   8 O        9   5 B                                       1.3710541
     9   5 B       10   6 C                                       1.5466482
    10   6 C       11   6 C                                       1.3779996
    11   6 C       12   6 C                                       1.3852210
    12   6 C       13   1 H                                       1.0803589
    14   6 C       15   1 H                                       1.0905445
    16   6 C       17   5 B                                       1.5599697 (max)
    17   5 B       18   8 O                                       1.3685843
    18   8 O       19   6 C                                       1.4267050
    19   6 C       20   6 C                                       1.5270037
    19   6 C       21   6 C                                       1.5341466
    22   6 C       23   6 C                                       1.5339599
    22   6 C       24   6 C                                       1.5271346
    17   5 B       25   8 O                                       1.3663682
    22   6 C       25   8 O                                       1.4275417
    16   6 C       26   6 C                                       1.3330479
    27   6 C       28   1 H                                       1.0915306
    29   6 C       30   6 C                                       1.3630783
    30   6 C       31   6 C                                       1.3915461
    31   6 C       32   1 H                                       1.0805758
     1   6 C       33   1 H                                       1.0872053
     1   6 C       34   1 H                                       1.0867706
     1   6 C       35   1 H                                       1.0852118
     4   6 C       36   1 H                                       1.0875680
     4   6 C       37   1 H                                       1.0871202
     4   6 C       38   1 H                                       1.0858802
     6   6 C       39   1 H                                       1.0867209
     6   6 C       40   1 H                                       1.0850759
     6   6 C       41   1 H                                       1.0872536
     7   6 C       42   1 H                                       1.0858329
     7   6 C       43   1 H                                       1.0876252
     7   6 C       44   1 H                                       1.0872362
    11   6 C       45   1 H                                       1.0848638
    20   6 C       46   1 H                                       1.0872560
    20   6 C       47   1 H                                       1.0866227
    20   6 C       48   1 H                                       1.0850337
    21   6 C       49   1 H                                       1.0876049
    21   6 C       50   1 H                                       1.0871375
    21   6 C       51   1 H                                       1.0858311
    23   6 C       52   1 H                                       1.0859017
    23   6 C       53   1 H                                       1.0874539
    23   6 C       54   1 H                                       1.0871016
    24   6 C       55   1 H                                       1.0866872
    24   6 C       56   1 H                                       1.0849669
    24   6 C       57   1 H                                       1.0871009
    26   6 C       58   1 H                                       1.0815755
    29   6 C       59   1 H                                       1.0797181 (min)
    30   6 C       60   1 H                                       1.0853648

 * 5 distinct bonds (by element types)

   Z      Z             #   av. dist./Å        max./Å        min./Å
   1 H    6 C          32     1.0860228     1.0915306     1.0797181
   5 B    6 C           2     1.5533089     1.5599697     1.5466482
   6 C    6 C          13     1.4689239     1.5343305     1.3330479
   5 B    8 O           4     1.3693481     1.3713858     1.3663682
   6 C    8 O           4     1.4264442     1.4275417     1.4255042


optimized geometry written to: xtbopt.xyz


           -------------------------------------------------
          | TOTAL ENERGY              -82.281342696126 Eh   |
          | GRADIENT NORM               0.000458677503 Eh/α |
          | HOMO-LUMO GAP               1.623763144186 eV   |
           -------------------------------------------------

------------------------------------------------------------------------
 * finished run on 2022/07/09 at 18:33:13.661     
------------------------------------------------------------------------
 total:
 * wall-time:     0 d,  0 h,  0 min,  2.736 sec
 *  cpu-time:     0 d,  0 h,  0 min,  2.732 sec
 * ratio c/w:     0.998 speedup
 SCF:
 * wall-time:     0 d,  0 h,  0 min,  0.071 sec
 *  cpu-time:     0 d,  0 h,  0 min,  0.071 sec
 * ratio c/w:     1.000 speedup
 ANC optimizer:
 * wall-time:     0 d,  0 h,  0 min,  2.653 sec
 *  cpu-time:     0 d,  0 h,  0 min,  2.648 sec
 * ratio c/w:     0.998 speedup

