      -----------------------------------------------------------      
     |                   =====================                   |     
     |                           x T B                           |     
     |                   =====================                   |     
     |                         S. Grimme                         |     
     |          Mulliken Center for Theoretical Chemistry        |     
     |                    University of Bonn                     |     
      -----------------------------------------------------------      

   * xtb version 6.5.0 (homebrew) compiled by 'nhattrup@GPGGRP-SHANNON.CHEME.CMU.EDU' on 

   xtb is free software: you can redistribute it and/or modify it under
   the terms of the GNU Lesser General Public License as published by
   the Free Software Foundation, either version 3 of the License, or
   (at your option) any later version.
   
   xtb is distributed in the hope that it will be useful,
   but WITHOUT ANY WARRANTY; without even the implied warranty of
   MERCHANTABILITY or FITNESS FOR A PARTICULAR PURPOSE.  See the
   GNU Lesser General Public License for more details.
   
   Cite this work as:
   * C. Bannwarth, E. Caldeweyher, S. Ehlert, A. Hansen, P. Pracht,
     J. Seibert, S. Spicher, S. Grimme, WIREs Comput. Mol. Sci., 2020, 11,
     e01493. DOI: 10.1002/wcms.1493
   
   for GFN2-xTB:
   * C. Bannwarth, S. Ehlert and S. Grimme., J. Chem. Theory Comput., 2019,
     15, 1652-1671. DOI: 10.1021/acs.jctc.8b01176
   for GFN1-xTB:
   * S. Grimme, C. Bannwarth, P. Shushkov, J. Chem. Theory Comput., 2017,
     13, 1989-2009. DOI: 10.1021/acs.jctc.7b00118
   for GFN0-xTB:
   * P. Pracht, E. Caldeweyher, S. Ehlert, S. Grimme, ChemRxiv, 2019, preprint.
     DOI: 10.26434/chemrxiv.8326202.v1
   for GFN-FF:
   * S. Spicher and S. Grimme, Angew. Chem. Int. Ed., 2020, 59, 15665-15673.
     DOI: 10.1002/anie.202004239
   
   for ALPB and GBSA implicit solvation:
   * S. Ehlert, M. Stahn, S. Spicher, S. Grimme, J. Chem. Theory Comput.,
     2021, 17, 4250-4261. DOI: 10.1021/acs.jctc.1c00471
   
   for DFT-D4:
   * E. Caldeweyher, C. Bannwarth and S. Grimme, J. Chem. Phys., 2017,
     147, 034112. DOI: 10.1063/1.4993215
   * E. Caldeweyher, S. Ehlert, A. Hansen, H. Neugebauer, S. Spicher,
     C. Bannwarth and S. Grimme, J. Chem. Phys., 2019, 150, 154122.
     DOI: 10.1063/1.5090222
   * E. Caldeweyher, J.-M. Mewes, S. Ehlert and S. Grimme, Phys. Chem. Chem. Phys.
     2020, 22, 8499-8512. DOI: 10.1039/D0CP00502A
   
   for sTDA-xTB:
   * S. Grimme and C. Bannwarth, J. Chem. Phys., 2016, 145, 054103.
     DOI: 10.1063/1.4959605
   
   in the mass-spec context:
   * V. Asgeirsson, C. Bauer and S. Grimme, Chem. Sci., 2017, 8, 4879.
     DOI: 10.1039/c7sc00601b
   * J. Koopman and S. Grimme, ACS Omega 2019, 4, 12, 15120-15133.
     DOI: 10.1021/acsomega.9b02011
   
   for metadynamics refer to:
   * S. Grimme, J. Chem. Theory Comput., 2019, 155, 2847-2862
     DOI: 10.1021/acs.jctc.9b00143
   
   for SPH calculations refer to:
   * S. Spicher and S. Grimme, J. Chem. Theory Comput., 2021, 17, 1701-1714
     DOI: 10.1021/acs.jctc.0c01306
   
   with help from (in alphabetical order)
   P. Atkinson, C. Bannwarth, F. Bohle, G. Brandenburg, E. Caldeweyher
   M. Checinski, S. Dohm, S. Ehlert, S. Ehrlich, I. Gerasimov, C. Hölzer
   A. Katbashev, J. Koopman, C. Lavigne, S. Lehtola, F. März, M. Müller,
   F. Musil, H. Neugebauer, J. Pisarek, C. Plett, P. Pracht, F. Pultar,
   J. Seibert, P. Shushkov, S. Spicher, M. Stahn, M. Steiner, T. Strunk,
   J. Stückrath, T. Rose, and J. Unsleber
   
 * started run on 2022/07/09 at 18:32:59.381     

           -------------------------------------------------
          |                Calculation Setup                |
           -------------------------------------------------

          program call               : /opt/homebrew/bin/xtb bvl_bpin2_scan_4-0_xtb.xyz --chrg 0 --uhf 0 --opt --input xcontrol_bvl_bpin2_scan_4-0_xtb
          coordinate file            : bvl_bpin2_scan_4-0_xtb.xyz
          omp threads                :                     1

   ID    Z sym.   atoms
    1    6 C      1, 2, 4-7, 10-12, 14, 16, 19-24, 26, 27, 29-31
    2    8 O      3, 8, 18, 25
    3    5 B      9, 17
    4    1 H      13, 15, 28, 32-60
constraining bond 12 31 to    1.9444000 Å, actual value:    1.8267186 Å
constraining bond 10 29 to    2.5000000 Å, actual value:    2.4983930 Å

           -------------------------------------------------
          |                 G F N 2 - x T B                 |
           -------------------------------------------------

        Reference                      10.1021/acs.jctc.8b01176
      * Hamiltonian:
        H0-scaling (s, p, d)           1.850000    2.230000    2.230000
        zeta-weighting                 0.500000
      * Dispersion:
        s8                             2.700000
        a1                             0.520000
        a2                             5.000000
        s9                             5.000000
      * Repulsion:
        kExp                           1.500000    1.000000
        rExp                           1.000000
      * Coulomb:
        alpha                          2.000000
        third order                    shell-resolved
        anisotropic                    true
        a3                             3.000000
        a5                             4.000000
        cn-shift                       1.200000
        cn-exp                         4.000000
        max-rad                        5.000000


          ...................................................
          :                      SETUP                      :
          :.................................................:
          :  # basis functions                 144          :
          :  # atomic orbitals                 144          :
          :  # shells                           88          :
          :  # electrons                       150          :
          :  max. iterations                   250          :
          :  Hamiltonian                  GFN2-xTB          :
          :  restarted?                      false          :
          :  GBSA solvation                  false          :
          :  PC potential                    false          :
          :  electronic temp.          300.0000000     K    :
          :  accuracy                    1.0000000          :
          :  -> integral cutoff          0.2500000E+02      :
          :  -> integral neglect         0.1000000E-07      :
          :  -> SCF convergence          0.1000000E-05 Eh   :
          :  -> wf. convergence          0.1000000E-03 e    :
          :  Broyden damping             0.4000000          :
          ...................................................

 iter      E             dE          RMSdq      gap      omega  full diag
   1    -82.9466629 -0.829467E+02  0.469E+00    2.80       0.0  T
   2    -83.3253608 -0.378698E+00  0.288E+00    2.60       1.0  T
   3    -83.3373768 -0.120160E-01  0.139E+00    2.77       1.0  T
   4    -83.3580383 -0.206615E-01  0.497E-01    2.74       1.0  T
   5    -83.3721021 -0.140638E-01  0.208E-01    2.74       1.0  T
   6    -83.3736849 -0.158277E-02  0.115E-01    2.75       1.0  T
   7    -83.3738761 -0.191241E-03  0.396E-02    2.75       1.0  T
   8    -83.3739330 -0.568654E-04  0.140E-02    2.75       1.0  T
   9    -83.3739392 -0.625378E-05  0.539E-03    2.75       2.4  T
  10    -83.3739397 -0.515295E-06  0.261E-03    2.75       5.0  T
  11    -83.3739398 -0.105748E-06  0.802E-04    2.75      16.1  T
  12    -83.3739399 -0.283943E-07  0.346E-04    2.75      37.3  T

   *** convergence criteria satisfied after 12 iterations ***

         #    Occupation            Energy/Eh            Energy/eV
      -------------------------------------------------------------
         1        2.0000           -0.6881293             -18.7250
       ...           ...                  ...                  ...
        69        2.0000           -0.4041280             -10.9969
        70        2.0000           -0.3978121             -10.8250
        71        2.0000           -0.3945077             -10.7351
        72        2.0000           -0.3937915             -10.7156
        73        2.0000           -0.3912829             -10.6473
        74        2.0000           -0.3603089              -9.8045
        75        2.0000           -0.3362210              -9.1490 (HOMO)
        76                         -0.2353242              -6.4035 (LUMO)
        77                         -0.2182739              -5.9395
        78                         -0.1893181              -5.1516
        79                         -0.1124342              -3.0595
        80                         -0.0978367              -2.6623
       ...                                ...                  ...
       144                          0.6747072              18.3597
      -------------------------------------------------------------
                  HL-Gap            0.1008968 Eh            2.7455 eV
             Fermi-level           -0.2857726 Eh           -7.7763 eV

 SCC (total)                   0 d,  0 h,  0 min,  0.069 sec
 SCC setup                      ...        0 min,  0.000 sec (  0.374%)
 Dispersion                     ...        0 min,  0.000 sec (  0.670%)
 classical contributions        ...        0 min,  0.000 sec (  0.274%)
 integral evaluation            ...        0 min,  0.007 sec (  9.439%)
 iterations                     ...        0 min,  0.034 sec ( 48.812%)
 molecular gradient             ...        0 min,  0.028 sec ( 39.910%)
 printout                       ...        0 min,  0.000 sec (  0.509%)

         :::::::::::::::::::::::::::::::::::::::::::::::::::::
         ::                     SUMMARY                     ::
         :::::::::::::::::::::::::::::::::::::::::::::::::::::
         :: total energy             -82.202462966268 Eh    ::
         :: gradient norm              1.187831435572 Eh/a0 ::
         :: HOMO-LUMO gap              2.745541839726 eV    ::
         ::.................................................::
         :: SCC energy               -83.373939874603 Eh    ::
         :: -> isotropic ES            0.147498386336 Eh    ::
         :: -> anisotropic ES          0.012728191934 Eh    ::
         :: -> anisotropic XC          0.027030267973 Eh    ::
         :: -> dispersion             -0.061104338651 Eh    ::
         :: repulsion energy           1.071772542572 Eh    ::
         :: add. restraining           0.098929153897 Eh    ::
         :: total charge              -0.000000000000 e     ::
         :::::::::::::::::::::::::::::::::::::::::::::::::::::

      ----------------------------------------------------------- 
     |                   =====================                   |
     |                        A N C O P T                        |
     |                   =====================                   |
     |               Approximate Normal Coordinate               |
     |                Rational Function Optimizer                |
      ----------------------------------------------------------- 

          ...................................................
          :                      SETUP                      :
          :.................................................:
          :   optimization level            normal          :
          :   max. optcycles                   200          :
          :   ANC micro-cycles                  20          :
          :   degrees of freedom               174          :
          :.................................................:
          :   RF solver                   davidson          :
          :   write xtbopt.log                true          :
          :   linear?                        false          :
          :   energy convergence         0.5000000E-05 Eh   :
          :   grad. convergence          0.1000000E-02 Eh/α :
          :   maximium RF displ.         1.0000000          :
          :   Hlow (freq-cutoff)         0.1000000E-01      :
          :   Hmax (freq-cutoff)         5.0000000          :
          :   S6 in model hess.         20.0000000          :
          ...................................................

generating ANC from model Hessian ...
Using Lindh-Hessian (1995)
 Shifting diagonal of input Hessian by   0.24526545122775650     
 Lowest  eigenvalues of input Hessian
    0.010000    0.131577    0.000000    0.000000    0.000000    0.000000
    0.000000    0.000000    0.245351    0.245398    0.245512    0.246606
    0.247038    0.247485    0.248527    0.248585    0.249805    0.250287
 Highest eigenvalues
    1.957429    2.112740    2.124781    2.150316    8.930459    9.072717


........................................................................
.............................. CYCLE    1 ..............................
........................................................................
   1    -83.3739399 -0.833739E+02  0.186E-04    2.75       0.0  T
   2    -83.3739399 -0.199451E-08  0.112E-04    2.75     115.3  T
   3    -83.3739399 -0.676764E-09  0.406E-05    2.75     317.9  T
     SCC iter.                  ...        0 min,  0.009 sec
     gradient                   ...        0 min,  0.028 sec
 * total energy  :   -82.2024630 Eh     change       -0.2100563E-08 Eh
   gradient norm :     1.1878312 Eh/α   predicted     0.0000000E+00 (-100.00%)
   displ. norm   :     0.2320577 α      lambda       -0.2679657E+00
   maximum displ.:     0.2196700 α      in ANC's #173, #174, #163, ...

........................................................................
.............................. CYCLE    2 ..............................
........................................................................
   1    -83.3630296 -0.833630E+02  0.247E-01    2.09       0.0  T
   2    -83.3630386 -0.894959E-05  0.151E-01    2.09       1.0  T
   3    -83.3623016  0.736980E-03  0.111E-01    2.10       1.0  T
   4    -83.3630904 -0.788817E-03  0.111E-02    2.09       1.2  T
   5    -83.3630967 -0.630001E-05  0.482E-03    2.09       2.7  T
   6    -83.3630972 -0.500720E-06  0.287E-03    2.09       4.5  T
   7    -83.3630974 -0.220766E-06  0.673E-04    2.09      19.2  T
   8    -83.3630974 -0.153612E-07  0.349E-04    2.09      37.0  T
     SCC iter.                  ...        0 min,  0.022 sec
     gradient                   ...        0 min,  0.027 sec
 * total energy  :   -82.2636998 Eh     change       -0.6123679E-01 Eh
   gradient norm :     0.6582575 Eh/α   predicted    -0.1427538E+00 ( 133.12%)
   displ. norm   :     0.0816198 α      lambda       -0.5283258E-01
   maximum displ.:     0.0781366 α      in ANC's #173, #174, #172, ...

........................................................................
.............................. CYCLE    3 ..............................
........................................................................
   1    -83.3644829 -0.833645E+02  0.860E-02    2.31       0.0  T
   2    -83.3645006 -0.177131E-04  0.561E-02    2.31       1.0  T
   3    -83.3644529  0.477404E-04  0.271E-02    2.30       1.0  T
   4    -83.3645029 -0.500130E-04  0.946E-03    2.30       1.4  T
   5    -83.3645083 -0.546673E-05  0.136E-03    2.31       9.5  T
   6    -83.3645083 -0.533545E-08  0.533E-04    2.31      24.2  T
   7    -83.3645083 -0.459401E-08  0.233E-04    2.31      55.4  T
     SCC iter.                  ...        0 min,  0.019 sec
     gradient                   ...        0 min,  0.028 sec
 * total energy  :   -82.2906216 Eh     change       -0.2692183E-01 Eh
   gradient norm :     0.0227993 Eh/α   predicted    -0.2659227E-01 (  -1.22%)
   displ. norm   :     0.0221793 α      lambda       -0.3966349E-03
   maximum displ.:     0.0066784 α      in ANC's #117, #124, #111, ...

........................................................................
.............................. CYCLE    4 ..............................
........................................................................
   1    -83.3635578 -0.833636E+02  0.167E-02    2.29       0.0  T
   2    -83.3635593 -0.147938E-05  0.106E-02    2.30       1.2  T
   3    -83.3635584  0.911268E-06  0.507E-03    2.30       2.5  T
   4    -83.3635592 -0.783023E-06  0.285E-03    2.30       4.5  T
   5    -83.3635597 -0.551757E-06  0.265E-04    2.30      48.7  T
   6    -83.3635597 -0.785249E-09  0.158E-04    2.30      81.9  T
     SCC iter.                  ...        0 min,  0.017 sec
     gradient                   ...        0 min,  0.027 sec
 * total energy  :   -82.2909345 Eh     change       -0.3128829E-03 Eh
   gradient norm :     0.0124558 Eh/α   predicted    -0.1998190E-03 ( -36.14%)
   displ. norm   :     0.0658364 α      lambda       -0.4026450E-03
   maximum displ.:     0.0522681 α      in ANC's #1, #117, #74, ...

........................................................................
.............................. CYCLE    5 ..............................
........................................................................
   1    -83.3622119 -0.833622E+02  0.444E-02    2.28       0.0  T
   2    -83.3622099  0.198385E-05  0.289E-02    2.28       1.0  T
   3    -83.3622052  0.468504E-05  0.245E-02    2.28       1.0  T
   4    -83.3622263 -0.210776E-04  0.326E-03    2.28       4.0  T
   5    -83.3622269 -0.670626E-06  0.699E-04    2.28      18.5  T
   6    -83.3622269 -0.863704E-08  0.437E-04    2.28      29.6  T
     SCC iter.                  ...        0 min,  0.016 sec
     gradient                   ...        0 min,  0.028 sec
 * total energy  :   -82.2909832 Eh     change       -0.4871805E-04 Eh
   gradient norm :     0.0107321 Eh/α   predicted    -0.2068476E-03 ( 324.58%)
   displ. norm   :     0.2028308 α      lambda       -0.1069603E-02
   maximum displ.:     0.1849715 α      in ANC's #1, #37, #117, ...

........................................................................
.............................. CYCLE    6 ..............................
........................................................................
   1    -83.3579459 -0.833579E+02  0.138E-01    2.21       0.0  T
   2    -83.3579126  0.333001E-04  0.872E-02    2.22       1.0  T
   3    -83.3577985  0.114104E-03  0.787E-02    2.21       1.0  T
   4    -83.3580368 -0.238248E-03  0.733E-03    2.21       1.8  T
   5    -83.3580413 -0.452497E-05  0.196E-03    2.21       6.6  T
   6    -83.3580414 -0.123200E-06  0.123E-03    2.21      10.5  T
   7    -83.3580415 -0.480408E-07  0.372E-04    2.21      34.7  T
   8    -83.3580415 -0.177100E-08  0.137E-04    2.21      93.9  T
     SCC iter.                  ...        0 min,  0.022 sec
     gradient                   ...        0 min,  0.027 sec
 * total energy  :   -82.2891733 Eh     change        0.1809919E-02 Eh
   gradient norm :     0.0483863 Eh/α   predicted    -0.5575358E-03 (-130.80%)
   displ. norm   :     0.1516265 α      lambda       -0.4079951E-02
   maximum displ.:     0.1293508 α      in ANC's #1, #117, #74, ...

........................................................................
.............................. CYCLE    7 ..............................
........................................................................
   1    -83.3630844 -0.833631E+02  0.105E-01    2.28       0.0  T
   2    -83.3630823  0.201326E-05  0.657E-02    2.27       1.0  T
   3    -83.3630019  0.804192E-04  0.573E-02    2.28       1.0  T
   4    -83.3631312 -0.129309E-03  0.709E-03    2.28       1.8  T
   5    -83.3631353 -0.405324E-05  0.146E-03    2.28       8.9  T
   6    -83.3631353 -0.456010E-07  0.103E-03    2.28      12.5  T
   7    -83.3631354 -0.388188E-07  0.330E-04    2.28      39.2  T
   8    -83.3631354 -0.162905E-08  0.869E-05    2.28     148.6  T
     SCC iter.                  ...        0 min,  0.023 sec
     gradient                   ...        0 min,  0.028 sec
 * total energy  :   -82.2911528 Eh     change       -0.1979544E-02 Eh
   gradient norm :     0.0068403 Eh/α   predicted    -0.2086809E-02 (   5.42%)
   displ. norm   :     0.0099433 α      lambda       -0.1893073E-04
   maximum displ.:     0.0056766 α      in ANC's #1, #37, #38, ...

........................................................................
.............................. CYCLE    8 ..............................
........................................................................
   1    -83.3632664 -0.833633E+02  0.562E-03    2.27       0.0  T
   2    -83.3632664  0.290368E-07  0.340E-03    2.27       3.8  T
   3    -83.3632661  0.342755E-06  0.314E-03    2.27       4.1  T
   4    -83.3632665 -0.456506E-06  0.203E-04    2.27      63.6  T
   5    -83.3632665 -0.205482E-08  0.745E-05    2.27     173.4  T
     SCC iter.                  ...        0 min,  0.014 sec
     gradient                   ...        0 min,  0.028 sec
 * total energy  :   -82.2911691 Eh     change       -0.1623572E-04 Eh
   gradient norm :     0.0027119 Eh/α   predicted    -0.1097985E-04 ( -32.37%)
   displ. norm   :     0.0212461 α      lambda       -0.3171628E-04
   maximum displ.:     0.0095665 α      in ANC's #37, #38, #32, ...

........................................................................
.............................. CYCLE    9 ..............................
........................................................................
   1    -83.3637374 -0.833637E+02  0.111E-02    2.27       0.0  T
   2    -83.3637374 -0.145192E-07  0.654E-03    2.27       2.0  T
   3    -83.3637367  0.691688E-06  0.346E-03    2.27       3.7  T
   4    -83.3637375 -0.743132E-06  0.340E-04    2.27      37.9  T
   5    -83.3637375 -0.515587E-08  0.143E-04    2.27      90.1  T
     SCC iter.                  ...        0 min,  0.014 sec
     gradient                   ...        0 min,  0.028 sec
 * total energy  :   -82.2911922 Eh     change       -0.2311537E-04 Eh
   gradient norm :     0.0052710 Eh/α   predicted    -0.1600073E-04 ( -30.78%)
   displ. norm   :     0.0290740 α      lambda       -0.3197273E-04
   maximum displ.:     0.0136153 α      in ANC's #37, #38, #32, ...

........................................................................
.............................. CYCLE   10 ..............................
........................................................................
   1    -83.3643889 -0.833644E+02  0.143E-02    2.27       0.0  T
   2    -83.3643889 -0.496706E-07  0.849E-03    2.27       1.5  T
   3    -83.3643883  0.577934E-06  0.321E-03    2.27       4.0  T
   4    -83.3643889 -0.615748E-06  0.491E-04    2.27      26.3  T
   5    -83.3643890 -0.119744E-07  0.189E-04    2.27      68.2  T
     SCC iter.                  ...        0 min,  0.014 sec
     gradient                   ...        0 min,  0.028 sec
 * total energy  :   -82.2912144 Eh     change       -0.2224156E-04 Eh
   gradient norm :     0.0067234 Eh/α   predicted    -0.1636784E-04 ( -26.41%)
   displ. norm   :     0.0230134 α      lambda       -0.1876367E-04
   maximum displ.:     0.0105242 α      in ANC's #37, #32, #38, ...

........................................................................
.............................. CYCLE   11 ..............................
........................................................................
   1    -83.3646991 -0.833647E+02  0.108E-02    2.27       0.0  T
   2    -83.3646992 -0.241856E-07  0.654E-03    2.27       2.0  T
   3    -83.3646985  0.696561E-06  0.354E-03    2.27       3.6  T
   4    -83.3646992 -0.751144E-06  0.368E-04    2.27      35.1  T
   5    -83.3646992 -0.625761E-08  0.159E-04    2.27      81.0  T
     SCC iter.                  ...        0 min,  0.014 sec
     gradient                   ...        0 min,  0.028 sec
 * total energy  :   -82.2912275 Eh     change       -0.1310338E-04 Eh
   gradient norm :     0.0028510 Eh/α   predicted    -0.9620589E-05 ( -26.58%)
   displ. norm   :     0.0159916 α      lambda       -0.1122858E-04
   maximum displ.:     0.0062358 α      in ANC's #37, #32, #19, ...

........................................................................
.............................. CYCLE   12 ..............................
........................................................................
   1    -83.3647024 -0.833647E+02  0.734E-03    2.28       0.0  T
   2    -83.3647024 -0.128185E-07  0.446E-03    2.28       2.9  T
   3    -83.3647020  0.439472E-06  0.288E-03    2.28       4.5  T
   4    -83.3647025 -0.479856E-06  0.296E-04    2.28      43.6  T
   5    -83.3647025 -0.424923E-08  0.115E-04    2.28     111.8  T
     SCC iter.                  ...        0 min,  0.014 sec
     gradient                   ...        0 min,  0.028 sec
 * total energy  :   -82.2912356 Eh     change       -0.8085693E-05 Eh
   gradient norm :     0.0014114 Eh/α   predicted    -0.5669985E-05 ( -29.88%)
   displ. norm   :     0.0220937 α      lambda       -0.9247702E-05
   maximum displ.:     0.0088035 α      in ANC's #19, #29, #32, ...

........................................................................
.............................. CYCLE   13 ..............................
........................................................................
   1    -83.3643848 -0.833644E+02  0.105E-02    2.28       0.0  T
   2    -83.3643848 -0.403863E-07  0.630E-03    2.28       2.0  T
   3    -83.3643844  0.380192E-06  0.268E-03    2.28       4.8  T
   4    -83.3643848 -0.408117E-06  0.407E-04    2.28      31.7  T
   5    -83.3643848 -0.775189E-08  0.144E-04    2.28      89.5  T
     SCC iter.                  ...        0 min,  0.014 sec
     gradient                   ...        0 min,  0.028 sec
 * total energy  :   -82.2912435 Eh     change       -0.7910900E-05 Eh
   gradient norm :     0.0039148 Eh/α   predicted    -0.4656561E-05 ( -41.14%)
   displ. norm   :     0.0057674 α      lambda       -0.4443794E-05
   maximum displ.:     0.0022057 α      in ANC's #19, #16, #29, ...

........................................................................
.............................. CYCLE   14 ..............................
........................................................................
   1    -83.3642498 -0.833642E+02  0.291E-03    2.28       0.0  T
   2    -83.3642498 -0.244933E-08  0.171E-03    2.28       7.5  T
   3    -83.3642498  0.422648E-07  0.870E-04    2.28      14.8  T
   4    -83.3642498 -0.452588E-07  0.116E-04    2.28     111.4  T
     SCC iter.                  ...        0 min,  0.011 sec
     gradient                   ...        0 min,  0.028 sec
 * total energy  :   -82.2912472 Eh     change       -0.3715797E-05 Eh
   gradient norm :     0.0023459 Eh/α   predicted    -0.2230190E-05 ( -39.98%)
   displ. norm   :     0.0152277 α      lambda       -0.8350632E-05
   maximum displ.:     0.0065977 α      in ANC's #19, #16, #29, ...

........................................................................
.............................. CYCLE   15 ..............................
........................................................................
   1    -83.3640411 -0.833640E+02  0.683E-03    2.28       0.0  T
   2    -83.3640411 -0.181693E-07  0.405E-03    2.28       3.2  T
   3    -83.3640410  0.121565E-06  0.138E-03    2.28       9.4  T
   4    -83.3640411 -0.128276E-06  0.299E-04    2.28      43.1  T
   5    -83.3640411 -0.462664E-08  0.113E-04    2.28     114.6  T
     SCC iter.                  ...        0 min,  0.014 sec
     gradient                   ...        0 min,  0.028 sec
 * total energy  :   -82.2912523 Eh     change       -0.5105748E-05 Eh
   gradient norm :     0.0011218 Eh/α   predicted    -0.4182684E-05 ( -18.08%)
   displ. norm   :     0.0121792 α      lambda       -0.2528232E-05
   maximum displ.:     0.0059926 α      in ANC's #19, #16, #29, ...

........................................................................
.............................. CYCLE   16 ..............................
........................................................................
   1    -83.3640454 -0.833640E+02  0.463E-03    2.27       0.0  T
   2    -83.3640455 -0.585943E-08  0.282E-03    2.28       4.6  T
   3    -83.3640453  0.138596E-06  0.156E-03    2.27       8.3  T
   4    -83.3640455 -0.150247E-06  0.186E-04    2.28      69.4  T
   5    -83.3640455 -0.141760E-08  0.980E-05    2.28     131.7  T
     SCC iter.                  ...        0 min,  0.014 sec
     gradient                   ...        0 min,  0.028 sec
 * total energy  :   -82.2912552 Eh     change       -0.2885443E-05 Eh
   gradient norm :     0.0020034 Eh/α   predicted    -0.1270812E-05 ( -55.96%)
   displ. norm   :     0.0129869 α      lambda       -0.4714996E-05
   maximum displ.:     0.0065185 α      in ANC's #19, #16, #29, ...

........................................................................
.............................. CYCLE   17 ..............................
........................................................................
   1    -83.3641576 -0.833642E+02  0.484E-03    2.28       0.0  T
   2    -83.3641576  0.272070E-08  0.298E-03    2.28       4.3  T
   3    -83.3641573  0.258182E-06  0.222E-03    2.27       5.8  T
   4    -83.3641576 -0.286731E-06  0.183E-04    2.28      70.7  T
   5    -83.3641576 -0.151657E-08  0.912E-05    2.28     141.5  T
     SCC iter.                  ...        0 min,  0.014 sec
     gradient                   ...        0 min,  0.028 sec
 * total energy  :   -82.2912590 Eh     change       -0.3746823E-05 Eh
   gradient norm :     0.0016252 Eh/α   predicted    -0.2365490E-05 ( -36.87%)
   displ. norm   :     0.0312115 α      lambda       -0.5534033E-05
   maximum displ.:     0.0157951 α      in ANC's #19, #16, #12, ...

........................................................................
.............................. CYCLE   18 ..............................
........................................................................
   1    -83.3643343 -0.833643E+02  0.113E-02    2.28       0.0  T
   2    -83.3643343  0.195611E-07  0.690E-03    2.28       1.9  T
   3    -83.3643329  0.137633E-05  0.503E-03    2.28       2.6  T
   4    -83.3643344 -0.150952E-05  0.328E-04    2.28      39.3  T
   5    -83.3643344 -0.374855E-08  0.189E-04    2.28      68.2  T
   6    -83.3643344 -0.100302E-08  0.831E-05    2.28     155.3  T
     SCC iter.                  ...        0 min,  0.016 sec
     gradient                   ...        0 min,  0.028 sec
 * total energy  :   -82.2912624 Eh     change       -0.3395222E-05 Eh
   gradient norm :     0.0009327 Eh/α   predicted    -0.2774455E-05 ( -18.28%)
   displ. norm   :     0.0036097 α      lambda       -0.1238458E-05
   maximum displ.:     0.0016824 α      in ANC's #29, #19, #16, ...

   *** GEOMETRY OPTIMIZATION CONVERGED AFTER 18 ITERATIONS ***

------------------------------------------------------------------------
 total energy gain   :        -0.0887994 Eh      -55.7225 kcal/mol
 total RMSD          :         0.0349047 a0        0.0185 Å
 total power (kW/mol):       -12.9523759 (step) -246.2481 (real)
------------------------------------------------------------------------

 ANCopt (total)                0 d,  0 h,  0 min,  0.947 sec
 optimizer setup                ...        0 min,  0.000 sec (  0.010%)
 model hessian                  ...        0 min,  0.031 sec (  3.314%)
 ANC generation                 ...        0 min,  0.003 sec (  0.287%)
 coordinate transformation      ...        0 min,  0.000 sec (  0.027%)
 single point calculation       ...        0 min,  0.906 sec ( 95.688%)
 optimization log               ...        0 min,  0.004 sec (  0.403%)
 hessian update                 ...        0 min,  0.000 sec (  0.044%)
 rational function              ...        0 min,  0.001 sec (  0.148%)

================
 final structure:
================
60
 xtb: 6.5.0 (homebrew)
C            3.28133303531466      -38.06069023540943       16.15328499794376
C            3.59885341955549      -38.26206587845640       17.63344048860198
O            3.23197076228421      -37.09406362351456       18.36399090004570
C            2.74384816589019      -39.41404591803766       18.17772277635537
C            5.12544239903209      -38.42669527217722       17.96879648950997
C            5.58100720269416      -39.86437569045539       18.20919667958756
C            6.03849346151883      -37.78041280448913       16.91856317577981
O            5.27553699709237      -37.67422100001300       19.17089068448479
B            4.19107078004252      -36.84729942357240       19.31165032427500
C            4.05055553007725      -35.79415418023925       20.43819085024002
C            5.07968448404291      -35.55595583583623       21.29084496792506
C            5.13376634928888      -34.67637635160352       22.39579412709558
H            6.08793593896914      -34.53660510140593       22.87951967389582
C            3.95508747522111      -34.02339082076744       23.07865037465794
H            4.17210083331435      -33.77257144962313       24.11505658173790
C            2.60986834683423      -34.65975871099323       22.98452924368477
B            1.81873550096583      -34.85918832386189       24.31412033501517
O            2.28516543251735      -34.47464277890370       25.54165784232524
C            1.39383088272866      -34.96056429377781       26.54481913256247
C            1.20154734866310      -33.88979782954217       27.61646977906758
C            2.06260426001605      -36.18907776840744       27.17470361468419
C            0.10021008011724      -35.32097304239383       25.72702885231061
C           -0.93858476774705      -34.19227987074722       25.72315831852430
C           -0.58012638673133      -36.62494638132700       26.13788682768464
O            0.58568205936518      -35.44181340605611       24.39022589337840
C            2.09354431122640      -35.06999749637597       21.82276120084949
C            2.75838519556133      -34.96240050757191       20.48590183846684
H            2.08956751647045      -35.37460626449484       19.72759287742883
C            3.06585027606281      -33.52283262626648       20.10549791082552
C            3.81637395327908      -32.68549506663329       20.83919002020204
C            4.34977249314492      -32.92255356191985       22.13446629163511
H            5.04411575842178      -32.19628536052618       22.52732930585035
H            2.20400178738182      -37.97731958817684       16.03260845442342
H            3.63522308478109      -38.90935239064972       15.57398183530387
H            3.73334040916945      -37.14955432194953       15.77498770349415
H            1.69516099288837      -39.14985653460851       18.06181214188379
H            2.93863470604775      -39.55589808830291       19.23784623947889
H            2.93802930402320      -40.33717874585780       17.63974045507170
H            5.38949844821787      -40.47260018785241       17.32924776121045
H            5.07603255796996      -40.29636201138867       19.06700916450751
H            6.64903183491322      -39.86516245254234       18.41249103362552
H            6.00846750897825      -38.32779933679686       15.98116116030481
H            7.05770656195442      -37.78399579322311       17.29828747540288
H            5.74643208451806      -36.74656920536282       16.75188909980671
H            5.99114240798715      -36.11540840078674       21.10950960776189
H            2.14743349380841      -33.72918134749838       28.12791639605629
H            0.46027487289103      -34.21273098748296       28.34242024392100
H            0.89246889830292      -32.94676385558523       27.17748204398807
H            3.02811635613888      -35.88927411025566       27.57580220810540
H            2.23564898106607      -36.95042087829793       26.41825727766090
H            1.45769679088035      -36.59816445569226       27.97829019155751
H           -1.38484732794854      -34.06425231133332       26.70479829235942
H           -1.71896252996342      -34.44564224969275       25.00936318724195
H           -0.48024438289226      -33.26060923023059       25.40132311229108
H           -0.88047865893530      -36.58189694209508       27.18129844334769
H            0.07677503798101      -37.47463352039378       25.98334203409211
H           -1.46479279791806      -36.76777562642131       25.52243566994543
H            1.11629244377064      -35.53304269959829       21.84493250075539
H            2.74954264127037      -33.21984951721176       19.11881924222829
H            4.06289539748325      -31.71555833531283       20.41982464754174

 Bond Distances (Angstroems)
 ---------------------------
C1-C2=1.5272         C1-H33=1.0873        C1-H34=1.0868        C1-H35=1.0852        C2-C1=1.5272         C2-O3=1.4257         
C2-C4=1.5344         C2-C5=1.5716         O3-C2=1.4257         O3-B9=1.3707         C4-C2=1.5344         C4-H36=1.0876        
C4-H37=1.0872        C4-H38=1.0860        C5-C2=1.5716         C5-C6=1.5272         C5-C7=1.5344         C5-O8=1.4261         
C6-C5=1.5272         C6-H39=1.0867        C6-H40=1.0851        C6-H41=1.0872        C7-C5=1.5344         C7-H42=1.0859        
C7-H43=1.0877        C7-H44=1.0872        O8-C5=1.4261         O8-B9=1.3710         B9-O3=1.3707         B9-O8=1.3710         
B9-C10=1.5485        C10-B9=1.5485        C10-C11=1.3575       C10-C27=1.5375       C11-C10=1.3575       C11-C12=1.4133       
C11-H45=1.0847       C12-C11=1.4133       C12-H13=1.0789       C12-C14=1.5106       C12-C31=1.9388       H13-C12=1.0789       
C14-C12=1.5106       C14-H15=1.0882       C14-C16=1.4911       C14-C31=1.5030       H15-C14=1.0882       C16-C14=1.4911       
C16-B17=1.5600       C16-C26=1.3359       B17-C16=1.5600       B17-O18=1.3683       B17-O25=1.3659       O18-B17=1.3683       
O18-C19=1.4272       C19-O18=1.4272       C19-C20=1.5271       C19-C21=1.5340       C19-C22=1.5723       C20-C19=1.5271       
C20-H46=1.0872       C20-H47=1.0866       C20-H48=1.0852       C21-C19=1.5340       C21-H49=1.0876       C21-H50=1.0871       
C21-H51=1.0858       C22-C19=1.5723       C22-C23=1.5340       C22-C24=1.5271       C22-O25=1.4273       C23-C22=1.5340       
C23-H52=1.0859       C23-H53=1.0875       C23-H54=1.0870       C24-C22=1.5271       C24-H55=1.0866       C24-H56=1.0851       
C24-H57=1.0871       O25-B17=1.3659       O25-C22=1.4273       C26-C16=1.3359       C26-C27=1.4969       C26-H58=1.0816       
C27-C10=1.5375       C27-C26=1.4969       C27-H28=1.0919       C27-C29=1.5204       H28-C27=1.0919       C29-C27=1.5204       
C29-C30=1.3427       C29-H59=1.0795       C30-C29=1.3427       C30-C31=1.4207       C30-H60=1.0851       C31-C12=1.9388       
C31-C14=1.5030       C31-C30=1.4207       C31-H32=1.0789       H32-C31=1.0789       H33-C1=1.0873        H34-C1=1.0868        
H35-C1=1.0852        H36-C4=1.0876        H37-C4=1.0872        H38-C4=1.0860        H39-C6=1.0867        H40-C6=1.0851        
H41-C6=1.0872        H42-C7=1.0859        H43-C7=1.0877        H44-C7=1.0872        H45-C11=1.0847       H46-C20=1.0872       
H47-C20=1.0866       H48-C20=1.0852       H49-C21=1.0876       H50-C21=1.0871       H51-C21=1.0858       H52-C23=1.0859       
H53-C23=1.0875       H54-C23=1.0870       H55-C24=1.0866       H56-C24=1.0851       H57-C24=1.0871       H58-C26=1.0816       
H59-C29=1.0795       H60-C30=1.0851       
 C  H  Rav=1.0859 sigma=0.0027  Rmin=1.0789  Rmax=1.0919    32
 C  B  Rav=1.5542 sigma=0.0057  Rmin=1.5485  Rmax=1.5600     2
 C  C  Rav=1.5117 sigma=0.1159  Rmin=1.3359  Rmax=1.9388    22
 O  B  Rav=1.3690 sigma=0.0021  Rmin=1.3659  Rmax=1.3710     4
 O  C  Rav=1.4266 sigma=0.0007  Rmin=1.4257  Rmax=1.4273     4

 selected bond angles (degree)
 --------------------
H33-C1-C2=108.89               H34-C1-C2=110.24               H34-C1-H33=108.87              H35-C1-C2=111.22               
H35-C1-H33=108.04              H35-C1-H34=109.52              O3-C2-C1=109.58                C4-C2-C1=109.08                
C4-C2-O3=106.85                C5-C2-C1=115.00                C5-C2-O3=103.09                C5-C2-C4=112.76                
B9-O3-C2=108.77                H36-C4-C2=108.49               H37-C4-C2=110.12               H37-C4-H36=107.96              
H38-C4-C2=111.27               H38-C4-H36=109.03              H38-C4-H37=109.88              C6-C5-C2=114.96                
C7-C5-C2=112.82                C7-C5-C6=109.07                O8-C5-C2=103.11                O8-C5-C6=109.43                
O8-C5-C7=106.98                H39-C6-C5=110.30               H40-C6-C5=111.12               H40-C6-H39=109.59              
H41-C6-C5=108.85               H41-C6-H39=108.91              H41-C6-H40=108.00              H42-C7-C5=111.23               
H43-C7-C5=108.50               H43-C7-H42=109.00              H44-C7-C5=110.22               H44-C7-H42=109.85              
H44-C7-H43=107.96              B9-O8-C5=108.76                O8-B9-O3=111.96                C10-B9-O3=124.19               
C10-B9-O8=123.83               C11-C10-B9=120.50              C27-C10-B9=117.82              C27-C10-C11=121.52             

 selected dihedral angles (degree)
 ---------------------------------
O3-C2-C1-H33=294.48           O3-C2-C1-H34=175.11           O3-C2-C1-H35= 53.42           C4-C2-C1-H33= 51.14           
C4-C2-C1-H34=291.77           C4-C2-C1-H35=170.08           C5-C2-C1-H33=178.95           C5-C2-C1-H34= 59.58           
C5-C2-C1-H35=297.89           B9-O3-C2-C1=219.94            B9-O3-C2-C4=101.88            B9-O3-C2-C5=342.84            
H36-C4-C2-C1=299.36           H36-C4-C2-O3= 57.74           H36-C4-C2-C5=170.31           H37-C4-C2-C1=181.41           
H37-C4-C2-O3=299.79           H37-C4-C2-C5= 52.35           H38-C4-C2-C1= 59.31           H38-C4-C2-O3=177.69           
H38-C4-C2-C5=290.25           C6-C5-C2-C1=258.74            C6-C5-C2-O3=139.53            C6-C5-C2-C4= 24.68            
C7-C5-C2-C1= 24.68            C7-C5-C2-O3=265.47            C7-C5-C2-C4=150.61            O8-C5-C2-C1=139.72            
O8-C5-C2-O3= 20.51            O8-C5-C2-C4=265.66            H39-C6-C5-C2= 59.49           H39-C6-C5-C7=291.65           
H39-C6-C5-O8=174.92           H40-C6-C5-C2=297.75           H40-C6-C5-C7=169.90           H40-C6-C5-O8= 53.18           
H41-C6-C5-C2=178.93           H41-C6-C5-C7= 51.08           H41-C6-C5-O8=294.36           H42-C7-C5-C2=290.34           
H42-C7-C5-C6= 59.38           H42-C7-C5-O8=177.65           H43-C7-C5-C2=170.45           H43-C7-C5-C6=299.49           
H43-C7-C5-O8= 57.76           H44-C7-C5-C2= 52.43           H44-C7-C5-C6=181.47           H44-C7-C5-O8=299.74           
B9-O8-C5-C2=343.13            B9-O8-C5-C6=220.34            B9-O8-C5-C7=102.31            O8-B9-O3-C2=  7.53            
C10-B9-O3-C2=189.47           O3-B9-O8-C5=  7.02            C10-B9-O8-C5=185.09           C11-C10-B9-O3=183.89          
C11-C10-B9-O8=  6.06          C27-C10-B9-O3=359.30          C27-C10-B9-O8=181.47          
           -------------------------------------------------
          |                Final Singlepoint                |
           -------------------------------------------------

          ...................................................
          :                      SETUP                      :
          :.................................................:
          :  # basis functions                 144          :
          :  # atomic orbitals                 144          :
          :  # shells                           88          :
          :  # electrons                       150          :
          :  max. iterations                   250          :
          :  Hamiltonian                  GFN2-xTB          :
          :  restarted?                      false          :
          :  GBSA solvation                  false          :
          :  PC potential                    false          :
          :  electronic temp.          300.0000000     K    :
          :  accuracy                    1.0000000          :
          :  -> integral cutoff          0.2500000E+02      :
          :  -> integral neglect         0.1000000E-07      :
          :  -> SCF convergence          0.1000000E-05 Eh   :
          :  -> wf. convergence          0.1000000E-03 e    :
          :  Broyden damping             0.4000000          :
          ...................................................

 iter      E             dE          RMSdq      gap      omega  full diag
   1    -83.3643344 -0.833643E+02  0.406E-05    2.28       0.0  T
   2    -83.3643344  0.284928E-10  0.409E-05    2.28     315.9  T
   3    -83.3643344 -0.106667E-09  0.114E-05    2.28    1129.7  T

   *** convergence criteria satisfied after 3 iterations ***

         #    Occupation            Energy/Eh            Energy/eV
      -------------------------------------------------------------
         1        2.0000           -0.6878457             -18.7172
       ...           ...                  ...                  ...
        69        2.0000           -0.4026253             -10.9560
        70        2.0000           -0.3975252             -10.8172
        71        2.0000           -0.3938562             -10.7174
        72        2.0000           -0.3933658             -10.7040
        73        2.0000           -0.3925699             -10.6824
        74        2.0000           -0.3625774              -9.8662
        75        2.0000           -0.3316077              -9.0235 (HOMO)
        76                         -0.2479636              -6.7474 (LUMO)
        77                         -0.2185592              -5.9473
        78                         -0.1883201              -5.1244
        79                         -0.1267911              -3.4502
        80                         -0.0978059              -2.6614
       ...                                ...                  ...
       144                          0.6752587              18.3747
      -------------------------------------------------------------
                  HL-Gap            0.0836441 Eh            2.2761 eV
             Fermi-level           -0.2897856 Eh           -7.8855 eV

 SCC (total)                   0 d,  0 h,  0 min,  0.043 sec
 SCC setup                      ...        0 min,  0.000 sec (  0.527%)
 Dispersion                     ...        0 min,  0.000 sec (  0.888%)
 classical contributions        ...        0 min,  0.000 sec (  0.402%)
 integral evaluation            ...        0 min,  0.006 sec ( 13.894%)
 iterations                     ...        0 min,  0.008 sec ( 19.449%)
 molecular gradient             ...        0 min,  0.028 sec ( 63.985%)
 printout                       ...        0 min,  0.000 sec (  0.839%)

         :::::::::::::::::::::::::::::::::::::::::::::::::::::
         ::                     SUMMARY                     ::
         :::::::::::::::::::::::::::::::::::::::::::::::::::::
         :: total energy             -82.291262356252 Eh    ::
         :: gradient norm              0.000932613792 Eh/a0 ::
         :: HOMO-LUMO gap              2.276071132429 eV    ::
         ::.................................................::
         :: SCC energy               -83.364334427736 Eh    ::
         :: -> isotropic ES            0.147645269976 Eh    ::
         :: -> anisotropic ES          0.012759114812 Eh    ::
         :: -> anisotropic XC          0.027179882973 Eh    ::
         :: -> dispersion             -0.061311832529 Eh    ::
         :: repulsion energy           1.072033629075 Eh    ::
         :: add. restraining           0.000259443643 Eh    ::
         :: total charge               0.000000000000 e     ::
         :::::::::::::::::::::::::::::::::::::::::::::::::::::

           -------------------------------------------------
          |                Property Printout                |
           -------------------------------------------------

    * Orbital Energies and Occupations

         #    Occupation            Energy/Eh            Energy/eV
      -------------------------------------------------------------
         1        2.0000           -0.6878457             -18.7172
       ...           ...                  ...                  ...
        63        2.0000           -0.4364330             -11.8759
        64        2.0000           -0.4284536             -11.6588
        65        2.0000           -0.4263024             -11.6003
        66        2.0000           -0.4200435             -11.4300
        67        2.0000           -0.4179288             -11.3724
        68        2.0000           -0.4118792             -11.2078
        69        2.0000           -0.4026253             -10.9560
        70        2.0000           -0.3975252             -10.8172
        71        2.0000           -0.3938562             -10.7174
        72        2.0000           -0.3933658             -10.7040
        73        2.0000           -0.3925699             -10.6824
        74        2.0000           -0.3625774              -9.8662
        75        2.0000           -0.3316077              -9.0235 (HOMO)
        76                         -0.2479636              -6.7474 (LUMO)
        77                         -0.2185592              -5.9473
        78                         -0.1883201              -5.1244
        79                         -0.1267911              -3.4502
        80                         -0.0978059              -2.6614
        81                         -0.0789212              -2.1476
        82                          0.0086113               0.2343
        83                          0.0150783               0.4103
        84                          0.0284628               0.7745
        85                          0.0320723               0.8727
        86                          0.0567272               1.5436
       ...                                ...                  ...
       144                          0.6752587              18.3747
      -------------------------------------------------------------
                  HL-Gap            0.0836441 Eh            2.2761 eV
             Fermi-level           -0.2897856 Eh           -7.8855 eV

     #   Z          covCN         q      C6AA      α(0)
     1   6 C        3.755    -0.117    22.787     6.807
     2   6 C        3.859     0.129    18.448     6.108
     3   8 O        1.638    -0.374    20.363     6.091
     4   6 C        3.755    -0.116    22.767     6.804
     5   6 C        3.859     0.130    18.445     6.108
     6   6 C        3.755    -0.117    22.793     6.807
     7   6 C        3.755    -0.115    22.765     6.803
     8   8 O        1.638    -0.376    20.403     6.097
     9   5 B        2.659     0.430    15.585     6.647
    10   6 C        2.868    -0.091    30.269     9.019
    11   6 C        2.893    -0.030    28.756     8.792
    12   6 C        3.502    -0.022    22.593     7.049
    13   1 H        0.926     0.032     2.556     2.500
    14   6 C        3.863    -0.005    20.635     6.460
    15   1 H        0.925     0.049     2.338     2.391
    16   6 C        2.864    -0.086    30.157     9.001
    17   5 B        2.661     0.431    15.567     6.641
    18   8 O        1.638    -0.373    20.340     6.088
    19   6 C        3.859     0.129    18.456     6.110
    20   6 C        3.755    -0.117    22.800     6.809
    21   6 C        3.755    -0.116    22.780     6.806
    22   6 C        3.860     0.129    18.457     6.110
    23   6 C        3.755    -0.117    22.787     6.807
    24   6 C        3.755    -0.118    22.808     6.810
    25   8 O        1.638    -0.370    20.280     6.079
    26   6 C        2.901    -0.023    28.578     8.765
    27   6 C        3.859    -0.018    20.864     6.496
    28   1 H        0.924     0.046     2.369     2.407
    29   6 C        2.895    -0.037    28.923     8.818
    30   6 C        2.888    -0.036    28.889     8.812
    31   6 C        3.504    -0.019    22.497     7.029
    32   1 H        0.926     0.032     2.555     2.500
    33   1 H        0.925     0.054     2.276     2.359
    34   1 H        0.925     0.038     2.469     2.457
    35   1 H        0.925     0.051     2.306     2.375
    36   1 H        0.925     0.051     2.302     2.373
    37   1 H        0.925     0.043     2.408     2.426
    38   1 H        0.925     0.041     2.433     2.439
    39   1 H        0.925     0.039     2.464     2.455
    40   1 H        0.925     0.051     2.301     2.372
    41   1 H        0.925     0.053     2.280     2.361
    42   1 H        0.925     0.042     2.428     2.437
    43   1 H        0.925     0.051     2.310     2.377
    44   1 H        0.925     0.043     2.411     2.428
    45   1 H        0.925     0.037     2.491     2.468
    46   1 H        0.925     0.054     2.270     2.356
    47   1 H        0.925     0.040     2.450     2.448
    48   1 H        0.925     0.052     2.295     2.369
    49   1 H        0.925     0.052     2.296     2.370
    50   1 H        0.925     0.044     2.398     2.422
    51   1 H        0.925     0.043     2.415     2.430
    52   1 H        0.925     0.043     2.412     2.429
    53   1 H        0.925     0.053     2.285     2.364
    54   1 H        0.925     0.044     2.398     2.422
    55   1 H        0.925     0.040     2.449     2.447
    56   1 H        0.925     0.052     2.293     2.368
    57   1 H        0.925     0.055     2.261     2.351
    58   1 H        0.925     0.038     2.480     2.463
    59   1 H        0.926     0.028     2.620     2.531
    60   1 H        0.925     0.026     2.646     2.544

 Mol. C6AA /au·bohr⁶  :      32925.820666
 Mol. C8AA /au·bohr⁸  :     762805.083982
 Mol. α(0) /au        :        274.209734


Wiberg/Mayer (AO) data.
largest (>0.10) Wiberg bond orders for each atom

 ---------------------------------------------------------------------------
     #   Z sym  total        # sym  WBO       # sym  WBO       # sym  WBO
 ---------------------------------------------------------------------------
     1   6 C    3.994 --     2 C    0.996    34 H    0.985    33 H    0.983
                            35 H    0.982
     2   6 C    3.944 --     1 C    0.996     4 C    0.990     3 O    0.955
                             5 C    0.936
     3   8 O    2.224 --     9 B    1.117     2 C    0.955
     4   6 C    3.994 --     2 C    0.990    38 H    0.985    37 H    0.984
                            36 H    0.983
     5   6 C    3.944 --     6 C    0.996     7 C    0.990     8 O    0.955
                             2 C    0.936
     6   6 C    3.994 --     5 C    0.996    39 H    0.985    41 H    0.983
                            40 H    0.982
     7   6 C    3.995 --     5 C    0.990    42 H    0.985    44 H    0.984
                            43 H    0.983
     8   8 O    2.221 --     9 B    1.116     5 C    0.955
     9   5 B    3.381 --     3 O    1.117     8 O    1.116    10 C    1.022
    10   6 C    3.969 --    11 C    1.654     9 B    1.022    27 C    0.955
                            31 C    0.109
    11   6 C    3.990 --    10 C    1.654    12 C    1.255    45 H    0.958
    12   6 C    3.935 --    11 C    1.255    13 H    0.974    14 C    0.936
                            31 C    0.580    29 C    0.107
    13   1 H    0.999 --    12 C    0.974
    14   6 C    3.980 --    16 C    1.021    15 H    0.966    31 C    0.955
                            12 C    0.936
    15   1 H    0.997 --    14 C    0.966
    16   6 C    3.977 --    26 C    1.832    14 C    1.021    17 B    0.999
    17   5 B    3.377 --    25 O    1.133    18 O    1.127    16 C    0.999
    18   8 O    2.232 --    17 B    1.127    19 C    0.953
    19   6 C    3.943 --    20 C    0.997    21 C    0.991    18 O    0.953
                            22 C    0.936
    20   6 C    3.994 --    19 C    0.997    47 H    0.984    46 H    0.983
                            48 H    0.982
    21   6 C    3.994 --    19 C    0.991    51 H    0.984    50 H    0.984
                            49 H    0.983
    22   6 C    3.942 --    24 C    0.996    23 C    0.991    25 O    0.953
                            19 C    0.936
    23   6 C    3.995 --    22 C    0.991    52 H    0.984    54 H    0.984
                            53 H    0.983
    24   6 C    3.994 --    22 C    0.996    55 H    0.985    57 H    0.982
                            56 H    0.982
    25   8 O    2.237 --    17 B    1.133    22 C    0.953
    26   6 C    3.985 --    16 C    1.832    27 C    1.004    58 H    0.967
    27   6 C    3.994 --    26 C    1.004    29 C    0.980    28 H    0.972
                            10 C    0.955
    28   1 H    0.998 --    27 C    0.972
    29   6 C    3.982 --    30 C    1.738    27 C    0.980    59 H    0.971
                            12 C    0.107
    30   6 C    3.991 --    29 C    1.738    31 C    1.219    60 H    0.961
    31   6 C    3.924 --    30 C    1.219    32 H    0.975    14 C    0.955
                            12 C    0.580    10 C    0.109
    32   1 H    0.999 --    31 C    0.975
    33   1 H    0.997 --     1 C    0.983
    34   1 H    0.998 --     1 C    0.985
    35   1 H    0.997 --     1 C    0.982
    36   1 H    0.997 --     4 C    0.983
    37   1 H    0.998 --     4 C    0.984
    38   1 H    0.998 --     4 C    0.985
    39   1 H    0.998 --     6 C    0.985
    40   1 H    0.997 --     6 C    0.982
    41   1 H    0.997 --     6 C    0.983
    42   1 H    0.998 --     7 C    0.985
    43   1 H    0.997 --     7 C    0.983
    44   1 H    0.998 --     7 C    0.984
    45   1 H    0.998 --    11 C    0.958
    46   1 H    0.997 --    20 C    0.983
    47   1 H    0.998 --    20 C    0.984
    48   1 H    0.997 --    20 C    0.982
    49   1 H    0.997 --    21 C    0.983
    50   1 H    0.998 --    21 C    0.984
    51   1 H    0.998 --    21 C    0.984
    52   1 H    0.998 --    23 C    0.984
    53   1 H    0.997 --    23 C    0.983
    54   1 H    0.998 --    23 C    0.984
    55   1 H    0.998 --    24 C    0.985
    56   1 H    0.997 --    24 C    0.982
    57   1 H    0.997 --    24 C    0.982
    58   1 H    0.998 --    26 C    0.967
    59   1 H    0.999 --    29 C    0.971
    60   1 H    0.999 --    30 C    0.961
 ---------------------------------------------------------------------------

Topologies differ in total number of bonds
Writing topology from bond orders to xtbtopo.mol

molecular dipole:
                 x           y           z       tot (Debye)
 q only:       -0.263      -0.398       0.352
   full:       -0.142      -0.482       0.303       1.491
molecular quadrupole (traceless):
                xx          xy          yy          xz          yz          zz
 q only:      -52.474      22.319      36.171     -23.858     -52.035      16.303
  q+dip:      -54.642      11.411      46.738     -15.982     -50.415       7.904
   full:      -55.349      10.337      48.250     -17.809     -51.544       7.099

           -------------------------------------------------
          |                Geometry Summary                 |
           -------------------------------------------------

      molecular mass/u    :      382.1099696
   center of mass at/Å    :        2.9715230     -35.8850342      21.8178636
  moments of inertia/u·Å² :        0.1441384E+04   0.6311982E+04   0.6788390E+04
rotational constants/cm⁻¹ :        0.1169545E-01   0.2670735E-02   0.2483303E-02

 * 57 selected distances

     #   Z          #   Z                                           value/Å
     1   6 C        2   6 C                                       1.5271647
     2   6 C        3   8 O                                       1.4256705
     2   6 C        4   6 C                                       1.5343845
     5   6 C        6   6 C                                       1.5271729
     5   6 C        7   6 C                                       1.5343838
     5   6 C        8   8 O                                       1.4261054
     3   8 O        9   5 B                                       1.3707021
     8   8 O        9   5 B                                       1.3710142
     9   5 B       10   6 C                                       1.5485327
    10   6 C       11   6 C                                       1.3575214
    11   6 C       12   6 C                                       1.4133287
    12   6 C       13   1 H                                       1.0788727
    12   6 C       14   6 C                                       1.5106181
    14   6 C       15   1 H                                       1.0881834
    16   6 C       17   5 B                                       1.5599603 (max)
    17   5 B       18   8 O                                       1.3683131
    18   8 O       19   6 C                                       1.4272105
    19   6 C       20   6 C                                       1.5270721
    19   6 C       21   6 C                                       1.5340333
    22   6 C       23   6 C                                       1.5339682
    22   6 C       24   6 C                                       1.5270916
    17   5 B       25   8 O                                       1.3658935
    22   6 C       25   8 O                                       1.4273500
    16   6 C       26   6 C                                       1.3358861
    27   6 C       28   1 H                                       1.0919081
    29   6 C       30   6 C                                       1.3426557
    14   6 C       31   6 C                                       1.5030312
    30   6 C       31   6 C                                       1.4207223
    31   6 C       32   1 H                                       1.0788511 (min)
     1   6 C       33   1 H                                       1.0872701
     1   6 C       34   1 H                                       1.0867649
     1   6 C       35   1 H                                       1.0851674
     4   6 C       36   1 H                                       1.0876471
     4   6 C       37   1 H                                       1.0871641
     4   6 C       38   1 H                                       1.0859584
     6   6 C       39   1 H                                       1.0867028
     6   6 C       40   1 H                                       1.0851055
     6   6 C       41   1 H                                       1.0872010
     7   6 C       42   1 H                                       1.0859357
     7   6 C       43   1 H                                       1.0876575
     7   6 C       44   1 H                                       1.0871582
    11   6 C       45   1 H                                       1.0847237
    20   6 C       46   1 H                                       1.0872332
    20   6 C       47   1 H                                       1.0866347
    20   6 C       48   1 H                                       1.0851511
    21   6 C       49   1 H                                       1.0876471
    21   6 C       50   1 H                                       1.0871058
    21   6 C       51   1 H                                       1.0858253
    23   6 C       52   1 H                                       1.0858907
    23   6 C       53   1 H                                       1.0875135
    23   6 C       54   1 H                                       1.0870438
    24   6 C       55   1 H                                       1.0866337
    24   6 C       56   1 H                                       1.0850678
    24   6 C       57   1 H                                       1.0871132
    26   6 C       58   1 H                                       1.0816302
    29   6 C       59   1 H                                       1.0795297
    30   6 C       60   1 H                                       1.0850888

 * 5 distinct bonds (by element types)

   Z      Z             #   av. dist./Å        max./Å        min./Å
   1 H    6 C          32     1.0858556     1.0919081     1.0788511
   5 B    6 C           2     1.5542465     1.5599603     1.5485327
   6 C    6 C          15     1.4752690     1.5343845     1.3358861
   5 B    8 O           4     1.3689807     1.3710142     1.3658935
   6 C    8 O           4     1.4265841     1.4273500     1.4256705


optimized geometry written to: xtbopt.xyz


           -------------------------------------------------
          | TOTAL ENERGY              -82.291262356252 Eh   |
          | GRADIENT NORM               0.000932613792 Eh/α |
          | HOMO-LUMO GAP               2.276071132429 eV   |
           -------------------------------------------------

------------------------------------------------------------------------
 * finished run on 2022/07/09 at 18:33:00.454     
------------------------------------------------------------------------
 total:
 * wall-time:     0 d,  0 h,  0 min,  1.073 sec
 *  cpu-time:     0 d,  0 h,  0 min,  1.072 sec
 * ratio c/w:     0.999 speedup
 SCF:
 * wall-time:     0 d,  0 h,  0 min,  0.069 sec
 *  cpu-time:     0 d,  0 h,  0 min,  0.069 sec
 * ratio c/w:     0.999 speedup
 ANC optimizer:
 * wall-time:     0 d,  0 h,  0 min,  0.991 sec
 *  cpu-time:     0 d,  0 h,  0 min,  0.990 sec
 * ratio c/w:     0.999 speedup

