      -----------------------------------------------------------      
     |                   =====================                   |     
     |                           x T B                           |     
     |                   =====================                   |     
     |                         S. Grimme                         |     
     |          Mulliken Center for Theoretical Chemistry        |     
     |                    University of Bonn                     |     
      -----------------------------------------------------------      

   * xtb version 6.5.0 (homebrew) compiled by 'nhattrup@GPGGRP-SHANNON.CHEME.CMU.EDU' on 

   xtb is free software: you can redistribute it and/or modify it under
   the terms of the GNU Lesser General Public License as published by
   the Free Software Foundation, either version 3 of the License, or
   (at your option) any later version.
   
   xtb is distributed in the hope that it will be useful,
   but WITHOUT ANY WARRANTY; without even the implied warranty of
   MERCHANTABILITY or FITNESS FOR A PARTICULAR PURPOSE.  See the
   GNU Lesser General Public License for more details.
   
   Cite this work as:
   * C. Bannwarth, E. Caldeweyher, S. Ehlert, A. Hansen, P. Pracht,
     J. Seibert, S. Spicher, S. Grimme, WIREs Comput. Mol. Sci., 2020, 11,
     e01493. DOI: 10.1002/wcms.1493
   
   for GFN2-xTB:
   * C. Bannwarth, S. Ehlert and S. Grimme., J. Chem. Theory Comput., 2019,
     15, 1652-1671. DOI: 10.1021/acs.jctc.8b01176
   for GFN1-xTB:
   * S. Grimme, C. Bannwarth, P. Shushkov, J. Chem. Theory Comput., 2017,
     13, 1989-2009. DOI: 10.1021/acs.jctc.7b00118
   for GFN0-xTB:
   * P. Pracht, E. Caldeweyher, S. Ehlert, S. Grimme, ChemRxiv, 2019, preprint.
     DOI: 10.26434/chemrxiv.8326202.v1
   for GFN-FF:
   * S. Spicher and S. Grimme, Angew. Chem. Int. Ed., 2020, 59, 15665-15673.
     DOI: 10.1002/anie.202004239
   
   for ALPB and GBSA implicit solvation:
   * S. Ehlert, M. Stahn, S. Spicher, S. Grimme, J. Chem. Theory Comput.,
     2021, 17, 4250-4261. DOI: 10.1021/acs.jctc.1c00471
   
   for DFT-D4:
   * E. Caldeweyher, C. Bannwarth and S. Grimme, J. Chem. Phys., 2017,
     147, 034112. DOI: 10.1063/1.4993215
   * E. Caldeweyher, S. Ehlert, A. Hansen, H. Neugebauer, S. Spicher,
     C. Bannwarth and S. Grimme, J. Chem. Phys., 2019, 150, 154122.
     DOI: 10.1063/1.5090222
   * E. Caldeweyher, J.-M. Mewes, S. Ehlert and S. Grimme, Phys. Chem. Chem. Phys.
     2020, 22, 8499-8512. DOI: 10.1039/D0CP00502A
   
   for sTDA-xTB:
   * S. Grimme and C. Bannwarth, J. Chem. Phys., 2016, 145, 054103.
     DOI: 10.1063/1.4959605
   
   in the mass-spec context:
   * V. Asgeirsson, C. Bauer and S. Grimme, Chem. Sci., 2017, 8, 4879.
     DOI: 10.1039/c7sc00601b
   * J. Koopman and S. Grimme, ACS Omega 2019, 4, 12, 15120-15133.
     DOI: 10.1021/acsomega.9b02011
   
   for metadynamics refer to:
   * S. Grimme, J. Chem. Theory Comput., 2019, 155, 2847-2862
     DOI: 10.1021/acs.jctc.9b00143
   
   for SPH calculations refer to:
   * S. Spicher and S. Grimme, J. Chem. Theory Comput., 2021, 17, 1701-1714
     DOI: 10.1021/acs.jctc.0c01306
   
   with help from (in alphabetical order)
   P. Atkinson, C. Bannwarth, F. Bohle, G. Brandenburg, E. Caldeweyher
   M. Checinski, S. Dohm, S. Ehlert, S. Ehrlich, I. Gerasimov, C. Hölzer
   A. Katbashev, J. Koopman, C. Lavigne, S. Lehtola, F. März, M. Müller,
   F. Musil, H. Neugebauer, J. Pisarek, C. Plett, P. Pracht, F. Pultar,
   J. Seibert, P. Shushkov, S. Spicher, M. Stahn, M. Steiner, T. Strunk,
   J. Stückrath, T. Rose, and J. Unsleber
   
 * started run on 2022/07/09 at 18:33:10.926     

           -------------------------------------------------
          |                Calculation Setup                |
           -------------------------------------------------

          program call               : /opt/homebrew/bin/xtb bvl_bpin2_scan_4-3_xtb.xyz --chrg 0 --uhf 0 --opt --input xcontrol_bvl_bpin2_scan_4-3_xtb
          coordinate file            : bvl_bpin2_scan_4-3_xtb.xyz
          omp threads                :                     1

   ID    Z sym.   atoms
    1    6 C      1, 2, 4-7, 10-12, 14, 16, 19-24, 26, 27, 29-31
    2    8 O      3, 8, 18, 25
    3    5 B      9, 17
    4    1 H      13, 15, 28, 32-60
constraining bond 12 31 to    1.9444000 Å, actual value:    1.8281965 Å
constraining bond 10 29 to    2.1667000 Å, actual value:    2.2779384 Å

           -------------------------------------------------
          |                 G F N 2 - x T B                 |
           -------------------------------------------------

        Reference                      10.1021/acs.jctc.8b01176
      * Hamiltonian:
        H0-scaling (s, p, d)           1.850000    2.230000    2.230000
        zeta-weighting                 0.500000
      * Dispersion:
        s8                             2.700000
        a1                             0.520000
        a2                             5.000000
        s9                             5.000000
      * Repulsion:
        kExp                           1.500000    1.000000
        rExp                           1.000000
      * Coulomb:
        alpha                          2.000000
        third order                    shell-resolved
        anisotropic                    true
        a3                             3.000000
        a5                             4.000000
        cn-shift                       1.200000
        cn-exp                         4.000000
        max-rad                        5.000000


          ...................................................
          :                      SETUP                      :
          :.................................................:
          :  # basis functions                 144          :
          :  # atomic orbitals                 144          :
          :  # shells                           88          :
          :  # electrons                       150          :
          :  max. iterations                   250          :
          :  Hamiltonian                  GFN2-xTB          :
          :  restarted?                      false          :
          :  GBSA solvation                  false          :
          :  PC potential                    false          :
          :  electronic temp.          300.0000000     K    :
          :  accuracy                    1.0000000          :
          :  -> integral cutoff          0.2500000E+02      :
          :  -> integral neglect         0.1000000E-07      :
          :  -> SCF convergence          0.1000000E-05 Eh   :
          :  -> wf. convergence          0.1000000E-03 e    :
          :  Broyden damping             0.4000000          :
          ...................................................

 iter      E             dE          RMSdq      gap      omega  full diag
   1    -82.9535995 -0.829536E+02  0.468E+00    3.10       0.0  T
   2    -83.3329801 -0.379381E+00  0.288E+00    2.86       1.0  T
   3    -83.3453549 -0.123748E-01  0.138E+00    3.07       1.0  T
   4    -83.3675178 -0.221629E-01  0.445E-01    3.02       1.0  T
   5    -83.3794247 -0.119069E-01  0.182E-01    3.04       1.0  T
   6    -83.3801412 -0.716498E-03  0.116E-01    3.06       1.0  T
   7    -83.3804324 -0.291227E-03  0.369E-02    3.05       1.0  T
   8    -83.3804830 -0.505540E-04  0.133E-02    3.05       1.0  T
   9    -83.3804885 -0.554408E-05  0.528E-03    3.05       2.4  T
  10    -83.3804890 -0.504461E-06  0.254E-03    3.05       5.1  T
  11    -83.3804891 -0.118012E-06  0.705E-04    3.05      18.3  T
  12    -83.3804891 -0.200545E-07  0.331E-04    3.05      39.0  T

   *** convergence criteria satisfied after 12 iterations ***

         #    Occupation            Energy/Eh            Energy/eV
      -------------------------------------------------------------
         1        2.0000           -0.6879410             -18.7198
       ...           ...                  ...                  ...
        69        2.0000           -0.4053927             -11.0313
        70        2.0000           -0.3975253             -10.8172
        71        2.0000           -0.3950599             -10.7501
        72        2.0000           -0.3936288             -10.7112
        73        2.0000           -0.3884950             -10.5715
        74        2.0000           -0.3544564              -9.6452
        75        2.0000           -0.3427916              -9.3278 (HOMO)
        76                         -0.2308149              -6.2808 (LUMO)
        77                         -0.2168665              -5.9012
        78                         -0.1898526              -5.1662
        79                         -0.1118945              -3.0448
        80                         -0.0983671              -2.6767
       ...                                ...                  ...
       144                          0.6837361              18.6054
      -------------------------------------------------------------
                  HL-Gap            0.1119767 Eh            3.0470 eV
             Fermi-level           -0.2868032 Eh           -7.8043 eV

 SCC (total)                   0 d,  0 h,  0 min,  0.068 sec
 SCC setup                      ...        0 min,  0.000 sec (  0.382%)
 Dispersion                     ...        0 min,  0.000 sec (  0.631%)
 classical contributions        ...        0 min,  0.000 sec (  0.267%)
 integral evaluation            ...        0 min,  0.006 sec (  9.026%)
 iterations                     ...        0 min,  0.033 sec ( 48.440%)
 molecular gradient             ...        0 min,  0.028 sec ( 40.729%)
 printout                       ...        0 min,  0.000 sec (  0.518%)

         :::::::::::::::::::::::::::::::::::::::::::::::::::::
         ::                     SUMMARY                     ::
         :::::::::::::::::::::::::::::::::::::::::::::::::::::
         :: total energy             -82.118561352373 Eh    ::
         :: gradient norm              1.679490622789 Eh/a0 ::
         :: HOMO-LUMO gap              3.047040008783 eV    ::
         ::.................................................::
         :: SCC energy               -83.380489145200 Eh    ::
         :: -> isotropic ES            0.147545925978 Eh    ::
         :: -> anisotropic ES          0.012423320596 Eh    ::
         :: -> anisotropic XC          0.026878934053 Eh    ::
         :: -> dispersion             -0.061458919631 Eh    ::
         :: repulsion energy           1.076387082771 Eh    ::
         :: add. restraining           0.184818458216 Eh    ::
         :: total charge              -0.000000000000 e     ::
         :::::::::::::::::::::::::::::::::::::::::::::::::::::

      ----------------------------------------------------------- 
     |                   =====================                   |
     |                        A N C O P T                        |
     |                   =====================                   |
     |               Approximate Normal Coordinate               |
     |                Rational Function Optimizer                |
      ----------------------------------------------------------- 

          ...................................................
          :                      SETUP                      :
          :.................................................:
          :   optimization level            normal          :
          :   max. optcycles                   200          :
          :   ANC micro-cycles                  20          :
          :   degrees of freedom               174          :
          :.................................................:
          :   RF solver                   davidson          :
          :   write xtbopt.log                true          :
          :   linear?                        false          :
          :   energy convergence         0.5000000E-05 Eh   :
          :   grad. convergence          0.1000000E-02 Eh/α :
          :   maximium RF displ.         1.0000000          :
          :   Hlow (freq-cutoff)         0.1000000E-01      :
          :   Hmax (freq-cutoff)         5.0000000          :
          :   S6 in model hess.         20.0000000          :
          ...................................................

generating ANC from model Hessian ...
Using Lindh-Hessian (1995)
 Shifting diagonal of input Hessian by   0.23238476083039755     
 Lowest  eigenvalues of input Hessian
    0.010000    0.140028    0.000000    0.000000    0.000000    0.000000
    0.000000    0.000000    0.232483    0.232523    0.232657    0.233970
    0.234297    0.235040    0.235678    0.235737    0.237029    0.237543
 Highest eigenvalues
    1.945955    2.116026    2.126966    2.274036    8.887714    9.045069


........................................................................
.............................. CYCLE    1 ..............................
........................................................................
   1    -83.3804891 -0.833805E+02  0.184E-04    3.05       0.0  T
   2    -83.3804891 -0.210032E-08  0.107E-04    3.05     120.3  T
   3    -83.3804891 -0.739959E-09  0.361E-05    3.05     357.3  T
     SCC iter.                  ...        0 min,  0.008 sec
     gradient                   ...        0 min,  0.028 sec
 * total energy  :   -82.1185614 Eh     change       -0.2123528E-08 Eh
   gradient norm :     1.6794903 Eh/α   predicted     0.0000000E+00 (-100.00%)
   displ. norm   :     0.3109742 α      lambda       -0.5159866E+00
   maximum displ.:     0.2503802 α      in ANC's #174, #173, #127, ...

........................................................................
.............................. CYCLE    2 ..............................
........................................................................
   1    -83.3632095 -0.833632E+02  0.356E-01    2.79       0.0  T
   2    -83.3632783 -0.688315E-04  0.288E-01    2.79       1.0  T
   3    -83.3643397 -0.106141E-02  0.154E-01    2.79       1.0  T
   4    -83.3649181 -0.578356E-03  0.464E-02    2.79       1.0  T
   5    -83.3650261 -0.108037E-03  0.846E-03    2.79       1.5  T
   6    -83.3650284 -0.226323E-05  0.411E-03    2.79       3.1  T
   7    -83.3650284 -0.389004E-07  0.188E-03    2.79       6.9  T
   8    -83.3650286 -0.136581E-06  0.654E-04    2.79      19.7  T
   9    -83.3650286 -0.147422E-07  0.275E-04    2.79      46.9  T
     SCC iter.                  ...        0 min,  0.025 sec
     gradient                   ...        0 min,  0.028 sec
 * total energy  :   -82.2513893 Eh     change       -0.1328280E+00 Eh
   gradient norm :     0.8253285 Eh/α   predicted    -0.2830961E+00 ( 113.13%)
   displ. norm   :     0.1052070 α      lambda       -0.8288870E-01
   maximum displ.:     0.0840473 α      in ANC's #174, #173, #127, ...

........................................................................
.............................. CYCLE    3 ..............................
........................................................................
   1    -83.3707513 -0.833708E+02  0.119E-01    2.85       0.0  T
   2    -83.3707649 -0.136025E-04  0.109E-01    2.86       1.0  T
   3    -83.3711100 -0.345056E-03  0.554E-02    2.85       1.0  T
   4    -83.3711073  0.269132E-05  0.190E-02    2.85       1.0  T
   5    -83.3711251 -0.178007E-04  0.395E-03    2.85       3.3  T
   6    -83.3711258 -0.730172E-06  0.146E-03    2.85       8.8  T
   7    -83.3711258 -0.122358E-07  0.532E-04    2.85      24.3  T
   8    -83.3711258 -0.685114E-08  0.251E-04    2.85      51.4  T
     SCC iter.                  ...        0 min,  0.022 sec
     gradient                   ...        0 min,  0.028 sec
 * total energy  :   -82.2939097 Eh     change       -0.4252042E-01 Eh
   gradient norm :     0.0346350 Eh/α   predicted    -0.4190384E-01 (  -1.45%)
   displ. norm   :     0.0416047 α      lambda       -0.9905418E-03
   maximum displ.:     0.0134961 α      in ANC's #37, #127, #116, ...

........................................................................
.............................. CYCLE    4 ..............................
........................................................................
   1    -83.3716332 -0.833716E+02  0.286E-02    2.86       0.0  T
   2    -83.3716357 -0.249928E-05  0.182E-02    2.86       1.0  T
   3    -83.3716302  0.553362E-05  0.137E-02    2.86       1.0  T
   4    -83.3716400 -0.985769E-05  0.320E-03    2.86       4.0  T
   5    -83.3716405 -0.504519E-06  0.776E-04    2.86      16.6  T
   6    -83.3716405 -0.247807E-07  0.347E-04    2.86      37.2  T
     SCC iter.                  ...        0 min,  0.017 sec
     gradient                   ...        0 min,  0.028 sec
 * total energy  :   -82.2946770 Eh     change       -0.7673033E-03 Eh
   gradient norm :     0.0206770 Eh/α   predicted    -0.4961531E-03 ( -35.34%)
   displ. norm   :     0.2241935 α      lambda       -0.1794828E-02
   maximum displ.:     0.1936817 α      in ANC's #1, #37, #28, ...

........................................................................
.............................. CYCLE    5 ..............................
........................................................................
   1    -83.3692050 -0.833692E+02  0.143E-01    2.84       0.0  T
   2    -83.3692186 -0.135448E-04  0.849E-02    2.84       1.0  T
   3    -83.3690768  0.141766E-03  0.659E-02    2.84       1.0  T
   4    -83.3692674 -0.190606E-03  0.798E-03    2.84       1.6  T
   5    -83.3692713 -0.385837E-05  0.200E-03    2.84       6.5  T
   6    -83.3692713 -0.878570E-07  0.111E-03    2.84      11.6  T
   7    -83.3692714 -0.202523E-07  0.416E-04    2.84      31.1  T
   8    -83.3692714 -0.418980E-08  0.170E-04    2.84      75.7  T
     SCC iter.                  ...        0 min,  0.022 sec
     gradient                   ...        0 min,  0.028 sec
 * total energy  :   -82.2932398 Eh     change        0.1437243E-02 Eh
   gradient norm :     0.0474541 Eh/α   predicted    -0.9430809E-03 (-165.62%)
   displ. norm   :     0.2668269 α      lambda       -0.5710548E-02
   maximum displ.:     0.2491191 α      in ANC's #1, #37, #28, ...

........................................................................
.............................. CYCLE    6 ..............................
........................................................................
   1    -83.3725223 -0.833725E+02  0.165E-01    2.84       0.0  T
   2    -83.3725300 -0.772591E-05  0.975E-02    2.84       1.0  T
   3    -83.3723610  0.168945E-03  0.809E-02    2.84       1.0  T
   4    -83.3726209 -0.259828E-03  0.925E-03    2.84       1.4  T
   5    -83.3726268 -0.596328E-05  0.229E-03    2.84       5.6  T
   6    -83.3726269 -0.952786E-07  0.150E-03    2.84       8.6  T
   7    -83.3726270 -0.639797E-07  0.433E-04    2.84      29.8  T
   8    -83.3726270 -0.407783E-08  0.173E-04    2.84      74.8  T
     SCC iter.                  ...        0 min,  0.022 sec
     gradient                   ...        0 min,  0.028 sec
 * total energy  :   -82.2945068 Eh     change       -0.1267062E-02 Eh
   gradient norm :     0.0506900 Eh/α   predicted    -0.3058596E-02 ( 141.39%)
   displ. norm   :     0.1300341 α      lambda       -0.2880231E-02
   maximum displ.:     0.0435895 α      in ANC's #1, #37, #127, ...

........................................................................
.............................. CYCLE    7 ..............................
........................................................................
   1    -83.3731102 -0.833731E+02  0.937E-02    2.87       0.0  T
   2    -83.3731286 -0.183748E-04  0.578E-02    2.87       1.0  T
   3    -83.3730603  0.682867E-04  0.458E-02    2.87       1.0  T
   4    -83.3731736 -0.113294E-03  0.897E-03    2.87       1.4  T
   5    -83.3731774 -0.378898E-05  0.256E-03    2.87       5.1  T
   6    -83.3731776 -0.277686E-06  0.108E-03    2.87      11.9  T
   7    -83.3731777 -0.187786E-07  0.407E-04    2.87      31.7  T
   8    -83.3731777 -0.208775E-08  0.146E-04    2.87      88.3  T
     SCC iter.                  ...        0 min,  0.022 sec
     gradient                   ...        0 min,  0.028 sec
 * total energy  :   -82.2953606 Eh     change       -0.8537434E-03 Eh
   gradient norm :     0.0373300 Eh/α   predicted    -0.1467454E-02 (  71.88%)
   displ. norm   :     0.0615996 α      lambda       -0.6191523E-03
   maximum displ.:     0.0243610 α      in ANC's #37, #1, #28, ...

........................................................................
.............................. CYCLE    8 ..............................
........................................................................
   1    -83.3736706 -0.833737E+02  0.379E-02    2.86       0.0  T
   2    -83.3736724 -0.176342E-05  0.230E-02    2.86       1.0  T
   3    -83.3736576  0.147611E-04  0.167E-02    2.86       1.0  T
   4    -83.3736761 -0.184901E-04  0.282E-03    2.86       4.6  T
   5    -83.3736765 -0.372298E-06  0.808E-04    2.86      16.0  T
   6    -83.3736765 -0.245273E-07  0.364E-04    2.86      35.5  T
     SCC iter.                  ...        0 min,  0.017 sec
     gradient                   ...        0 min,  0.028 sec
 * total energy  :   -82.2957235 Eh     change       -0.3629237E-03 Eh
   gradient norm :     0.0110368 Eh/α   predicted    -0.3110013E-03 ( -14.31%)
   displ. norm   :     0.0386242 α      lambda       -0.1515999E-03
   maximum displ.:     0.0181157 α      in ANC's #37, #28, #29, ...

........................................................................
.............................. CYCLE    9 ..............................
........................................................................
   1    -83.3740015 -0.833740E+02  0.185E-02    2.85       0.0  T
   2    -83.3740015 -0.576173E-07  0.109E-02    2.85       1.2  T
   3    -83.3740011  0.380240E-06  0.239E-03    2.85       5.4  T
   4    -83.3740016 -0.412392E-06  0.498E-04    2.85      25.9  T
   5    -83.3740016 -0.108337E-07  0.204E-04    2.85      63.1  T
     SCC iter.                  ...        0 min,  0.014 sec
     gradient                   ...        0 min,  0.028 sec
 * total energy  :   -82.2958525 Eh     change       -0.1290095E-03 Eh
   gradient norm :     0.0082701 Eh/α   predicted    -0.7591758E-04 ( -41.15%)
   displ. norm   :     0.1314833 α      lambda       -0.4539986E-03
   maximum displ.:     0.0607302 α      in ANC's #37, #28, #29, ...

........................................................................
.............................. CYCLE   10 ..............................
........................................................................
   1    -83.3748673 -0.833749E+02  0.610E-02    2.86       0.0  T
   2    -83.3748678 -0.587316E-06  0.362E-02    2.86       1.0  T
   3    -83.3748656  0.227133E-05  0.604E-03    2.86       2.1  T
   4    -83.3748681 -0.254627E-05  0.127E-03    2.86      10.1  T
   5    -83.3748682 -0.502933E-07  0.741E-04    2.86      17.4  T
   6    -83.3748682 -0.820685E-08  0.367E-04    2.86      35.1  T
     SCC iter.                  ...        0 min,  0.016 sec
     gradient                   ...        0 min,  0.028 sec
 * total energy  :   -82.2961426 Eh     change       -0.2900777E-03 Eh
   gradient norm :     0.0145496 Eh/α   predicted    -0.2305910E-03 ( -20.51%)
   displ. norm   :     0.0622655 α      lambda       -0.1332951E-03
   maximum displ.:     0.0269410 α      in ANC's #28, #37, #29, ...

........................................................................
.............................. CYCLE   11 ..............................
........................................................................
   1    -83.3752825 -0.833753E+02  0.286E-02    2.86       0.0  T
   2    -83.3752829 -0.363778E-06  0.171E-02    2.86       1.0  T
   3    -83.3752797  0.322445E-05  0.618E-03    2.86       2.1  T
   4    -83.3752832 -0.348352E-05  0.117E-03    2.86      11.0  T
   5    -83.3752832 -0.663971E-07  0.421E-04    2.86      30.6  T
   6    -83.3752832 -0.399173E-08  0.231E-04    2.86      56.0  T
     SCC iter.                  ...        0 min,  0.017 sec
     gradient                   ...        0 min,  0.028 sec
 * total energy  :   -82.2962346 Eh     change       -0.9196114E-04 Eh
   gradient norm :     0.0099977 Eh/α   predicted    -0.6690256E-04 ( -27.25%)
   displ. norm   :     0.0370418 α      lambda       -0.7382473E-04
   maximum displ.:     0.0174829 α      in ANC's #28, #29, #37, ...

........................................................................
.............................. CYCLE   12 ..............................
........................................................................
   1    -83.3756698 -0.833757E+02  0.171E-02    2.87       0.0  T
   2    -83.3756701 -0.240142E-06  0.102E-02    2.87       1.3  T
   3    -83.3756682  0.182104E-05  0.485E-03    2.87       2.7  T
   4    -83.3756702 -0.199447E-05  0.981E-04    2.87      13.2  T
   5    -83.3756703 -0.490895E-07  0.281E-04    2.87      45.9  T
   6    -83.3756703 -0.243486E-08  0.143E-04    2.87      90.0  T
     SCC iter.                  ...        0 min,  0.016 sec
     gradient                   ...        0 min,  0.028 sec
 * total energy  :   -82.2962857 Eh     change       -0.5114411E-04 Eh
   gradient norm :     0.0034475 Eh/α   predicted    -0.3699394E-04 ( -27.67%)
   displ. norm   :     0.0285394 α      lambda       -0.4825224E-04
   maximum displ.:     0.0137865 α      in ANC's #28, #8, #29, ...

........................................................................
.............................. CYCLE   13 ..............................
........................................................................
   1    -83.3759553 -0.833760E+02  0.122E-02    2.87       0.0  T
   2    -83.3759554 -0.109393E-06  0.733E-03    2.87       1.8  T
   3    -83.3759546  0.748940E-06  0.337E-03    2.87       3.8  T
   4    -83.3759555 -0.820049E-06  0.628E-04    2.87      20.6  T
   5    -83.3759555 -0.190702E-07  0.188E-04    2.87      68.8  T
     SCC iter.                  ...        0 min,  0.014 sec
     gradient                   ...        0 min,  0.028 sec
 * total energy  :   -82.2963221 Eh     change       -0.3639392E-04 Eh
   gradient norm :     0.0054252 Eh/α   predicted    -0.2417616E-04 ( -33.57%)
   displ. norm   :     0.0425440 α      lambda       -0.6045953E-04
   maximum displ.:     0.0208938 α      in ANC's #28, #8, #43, ...

........................................................................
.............................. CYCLE   14 ..............................
........................................................................
   1    -83.3761370 -0.833761E+02  0.156E-02    2.87       0.0  T
   2    -83.3761371 -0.938921E-07  0.938E-03    2.87       1.4  T
   3    -83.3761361  0.955331E-06  0.419E-03    2.87       3.1  T
   4    -83.3761372 -0.104453E-05  0.480E-04    2.87      26.9  T
   5    -83.3761372 -0.859620E-08  0.206E-04    2.87      62.6  T
   6    -83.3761372 -0.953307E-09  0.103E-04    2.87     125.8  T
     SCC iter.                  ...        0 min,  0.016 sec
     gradient                   ...        0 min,  0.028 sec
 * total energy  :   -82.2963663 Eh     change       -0.4415981E-04 Eh
   gradient norm :     0.0080268 Eh/α   predicted    -0.3029919E-04 ( -31.39%)
   displ. norm   :     0.0484186 α      lambda       -0.5788135E-04
   maximum displ.:     0.0243248 α      in ANC's #28, #8, #43, ...

........................................................................
.............................. CYCLE   15 ..............................
........................................................................
   1    -83.3760438 -0.833760E+02  0.157E-02    2.87       0.0  T
   2    -83.3760439 -0.730447E-07  0.949E-03    2.87       1.4  T
   3    -83.3760428  0.104806E-05  0.435E-03    2.87       3.0  T
   4    -83.3760440 -0.114868E-05  0.410E-04    2.87      31.5  T
   5    -83.3760440 -0.387236E-08  0.245E-04    2.87      52.7  T
   6    -83.3760440 -0.155818E-08  0.117E-04    2.87     110.7  T
     SCC iter.                  ...        0 min,  0.017 sec
     gradient                   ...        0 min,  0.028 sec
 * total energy  :   -82.2964076 Eh     change       -0.4137466E-04 Eh
   gradient norm :     0.0065800 Eh/α   predicted    -0.2901300E-04 ( -29.88%)
   displ. norm   :     0.0425722 α      lambda       -0.4527258E-04
   maximum displ.:     0.0219198 α      in ANC's #28, #8, #43, ...

........................................................................
.............................. CYCLE   16 ..............................
........................................................................
   1    -83.3757267 -0.833757E+02  0.135E-02    2.87       0.0  T
   2    -83.3757268 -0.864881E-07  0.813E-03    2.87       1.6  T
   3    -83.3757260  0.784787E-06  0.358E-03    2.87       3.6  T
   4    -83.3757268 -0.867174E-06  0.506E-04    2.87      25.5  T
   5    -83.3757269 -0.100208E-07  0.249E-04    2.87      51.8  T
     SCC iter.                  ...        0 min,  0.014 sec
     gradient                   ...        0 min,  0.028 sec
 * total energy  :   -82.2964394 Eh     change       -0.3173851E-04 Eh
   gradient norm :     0.0031970 Eh/α   predicted    -0.2268298E-04 ( -28.53%)
   displ. norm   :     0.0314250 α      lambda       -0.3076636E-04
   maximum displ.:     0.0163661 α      in ANC's #28, #8, #37, ...

........................................................................
.............................. CYCLE   17 ..............................
........................................................................
   1    -83.3753989 -0.833754E+02  0.116E-02    2.87       0.0  T
   2    -83.3753989 -0.640962E-07  0.692E-03    2.87       1.9  T
   3    -83.3753986  0.311926E-06  0.231E-03    2.87       5.6  T
   4    -83.3753990 -0.350275E-06  0.380E-04    2.87      34.0  T
   5    -83.3753990 -0.522901E-08  0.182E-04    2.87      70.9  T
     SCC iter.                  ...        0 min,  0.014 sec
     gradient                   ...        0 min,  0.029 sec
 * total energy  :   -82.2964615 Eh     change       -0.2209117E-04 Eh
   gradient norm :     0.0029870 Eh/α   predicted    -0.1540724E-04 ( -30.26%)
   displ. norm   :     0.0294206 α      lambda       -0.2569588E-04
   maximum displ.:     0.0154994 α      in ANC's #28, #8, #37, ...

........................................................................
.............................. CYCLE   18 ..............................
........................................................................
   1    -83.3751474 -0.833751E+02  0.122E-02    2.87       0.0  T
   2    -83.3751474 -0.340931E-07  0.726E-03    2.87       1.8  T
   3    -83.3751473  0.127294E-06  0.164E-03    2.87       7.8  T
   4    -83.3751475 -0.142399E-06  0.333E-04    2.87      38.8  T
   5    -83.3751475 -0.287713E-08  0.180E-04    2.87      71.7  T
     SCC iter.                  ...        0 min,  0.014 sec
     gradient                   ...        0 min,  0.028 sec
 * total energy  :   -82.2964803 Eh     change       -0.1880493E-04 Eh
   gradient norm :     0.0041800 Eh/α   predicted    -0.1286395E-04 ( -31.59%)
   displ. norm   :     0.0333355 α      lambda       -0.2529264E-04
   maximum displ.:     0.0175593 α      in ANC's #28, #8, #29, ...

........................................................................
.............................. CYCLE   19 ..............................
........................................................................
   1    -83.3750057 -0.833750E+02  0.133E-02    2.87       0.0  T
   2    -83.3750057 -0.162940E-07  0.794E-03    2.87       1.6  T
   3    -83.3750055  0.180681E-06  0.170E-03    2.87       7.6  T
   4    -83.3750057 -0.196052E-06  0.296E-04    2.87      43.6  T
   5    -83.3750057 -0.149707E-08  0.164E-04    2.87      78.9  T
     SCC iter.                  ...        0 min,  0.014 sec
     gradient                   ...        0 min,  0.028 sec
 * total energy  :   -82.2964988 Eh     change       -0.1851551E-04 Eh
   gradient norm :     0.0039851 Eh/α   predicted    -0.1267017E-04 ( -31.57%)
   displ. norm   :     0.0377541 α      lambda       -0.2486075E-04
   maximum displ.:     0.0197222 α      in ANC's #28, #8, #29, ...

........................................................................
.............................. CYCLE   20 ..............................
........................................................................
   1    -83.3749720 -0.833750E+02  0.135E-02    2.87       0.0  T
   2    -83.3749720 -0.295876E-07  0.810E-03    2.87       1.6  T
   3    -83.3749715  0.584173E-06  0.279E-03    2.87       4.6  T
   4    -83.3749721 -0.629054E-06  0.374E-04    2.87      34.5  T
   5    -83.3749721 -0.396490E-08  0.191E-04    2.87      67.5  T
     SCC iter.                  ...        0 min,  0.014 sec
     gradient                   ...        0 min,  0.028 sec
 * total energy  :   -82.2965168 Eh     change       -0.1804785E-04 Eh
   gradient norm :     0.0026155 Eh/α   predicted    -0.1245299E-04 ( -31.00%)
   displ. norm   :     0.0377092 α      lambda       -0.2234265E-04
   maximum displ.:     0.0192727 α      in ANC's #28, #29, #8, ...
 * RMSD in coord.:     0.0878517 α      energy gain  -0.1779555E+00 Eh

generating ANC from model Hessian ...
Using Lindh-Hessian (1995)
 Shifting diagonal of input Hessian by    9.9094866904106127E-003
 Lowest  eigenvalues of input Hessian
    0.000000    0.000000    0.000000    0.000000    0.000000    0.000000
    0.010000    0.010037    0.010087    0.010164    0.010909    0.011759
    0.012244    0.013177    0.013237    0.013444    0.014860    0.015095
 Highest eigenvalues
    1.722886    1.886240    1.908332    1.916435    8.646950    8.733453


........................................................................
.............................. CYCLE   21 ..............................
........................................................................
   1    -83.3750136 -0.833750E+02  0.122E-02    2.88       0.0  T
   2    -83.3750137 -0.578188E-07  0.732E-03    2.88       1.8  T
   3    -83.3750131  0.616834E-06  0.293E-03    2.88       4.4  T
   4    -83.3750137 -0.669170E-06  0.468E-04    2.88      27.6  T
   5    -83.3750137 -0.903299E-08  0.189E-04    2.88      68.2  T
     SCC iter.                  ...        0 min,  0.014 sec
     gradient                   ...        0 min,  0.028 sec
 * total energy  :   -82.2965330 Eh     change       -0.1614087E-04 Eh
   gradient norm :     0.0023048 Eh/α   predicted     0.0000000E+00 (-100.00%)
   displ. norm   :     0.0483768 α      lambda       -0.3525764E-04
   maximum displ.:     0.0202038 α      in ANC's #6, #10, #27, ...

........................................................................
.............................. CYCLE   22 ..............................
........................................................................
   1    -83.3751131 -0.833751E+02  0.146E-02    2.88       0.0  T
   2    -83.3751131 -0.472180E-07  0.868E-03    2.88       1.5  T
   3    -83.3751127  0.423149E-06  0.301E-03    2.88       4.3  T
   4    -83.3751132 -0.465904E-06  0.391E-04    2.88      33.0  T
   5    -83.3751132 -0.705172E-08  0.207E-04    2.88      62.3  T
     SCC iter.                  ...        0 min,  0.014 sec
     gradient                   ...        0 min,  0.028 sec
 * total energy  :   -82.2965698 Eh     change       -0.3686454E-04 Eh
   gradient norm :     0.0013380 Eh/α   predicted    -0.2490016E-04 ( -32.45%)
   displ. norm   :     0.1315276 α      lambda       -0.4426183E-04
   maximum displ.:     0.0643335 α      in ANC's #6, #10, #2, ...

........................................................................
.............................. CYCLE   23 ..............................
........................................................................
   1    -83.3751989 -0.833752E+02  0.304E-02    2.88       0.0  T
   2    -83.3751991 -0.170186E-06  0.181E-02    2.88       1.0  T
   3    -83.3751981  0.942564E-06  0.442E-03    2.88       2.9  T
   4    -83.3751992 -0.104973E-05  0.733E-04    2.88      17.6  T
   5    -83.3751992 -0.147322E-07  0.444E-04    2.88      29.1  T
   6    -83.3751992 -0.376147E-08  0.171E-04    2.88      75.6  T
     SCC iter.                  ...        0 min,  0.016 sec
     gradient                   ...        0 min,  0.028 sec
 * total energy  :   -82.2966022 Eh     change       -0.3231625E-04 Eh
   gradient norm :     0.0016524 Eh/α   predicted    -0.2230232E-04 ( -30.99%)
   displ. norm   :     0.0604038 α      lambda       -0.1535400E-04
   maximum displ.:     0.0301248 α      in ANC's #6, #2, #4, ...

........................................................................
.............................. CYCLE   24 ..............................
........................................................................
   1    -83.3751995 -0.833752E+02  0.122E-02    2.88       0.0  T
   2    -83.3751996 -0.214311E-07  0.730E-03    2.88       1.8  T
   3    -83.3751995  0.323038E-07  0.836E-04    2.88      15.4  T
   4    -83.3751996 -0.387643E-07  0.272E-04    2.88      47.5  T
     SCC iter.                  ...        0 min,  0.011 sec
     gradient                   ...        0 min,  0.028 sec
 * total energy  :   -82.2966206 Eh     change       -0.1849055E-04 Eh
   gradient norm :     0.0026098 Eh/α   predicted    -0.7690078E-05 ( -58.41%)
   displ. norm   :     0.0894063 α      lambda       -0.2659482E-04
   maximum displ.:     0.0442520 α      in ANC's #2, #6, #1, ...

........................................................................
.............................. CYCLE   25 ..............................
........................................................................
   1    -83.3751255 -0.833751E+02  0.164E-02    2.89       0.0  T
   2    -83.3751255 -0.232135E-07  0.987E-03    2.89       1.3  T
   3    -83.3751255  0.126877E-07  0.731E-04    2.89      17.7  T
   4    -83.3751255 -0.200819E-07  0.340E-04    2.89      38.0  T
     SCC iter.                  ...        0 min,  0.011 sec
     gradient                   ...        0 min,  0.028 sec
 * total energy  :   -82.2966392 Eh     change       -0.1854794E-04 Eh
   gradient norm :     0.0029384 Eh/α   predicted    -0.1342111E-04 ( -27.64%)
   displ. norm   :     0.1056735 α      lambda       -0.1853754E-04
   maximum displ.:     0.0548936 α      in ANC's #2, #1, #6, ...

........................................................................
.............................. CYCLE   26 ..............................
........................................................................
   1    -83.3749704 -0.833750E+02  0.166E-02    2.89       0.0  T
   2    -83.3749704 -0.239141E-07  0.100E-02    2.89       1.3  T
   3    -83.3749703  0.951157E-07  0.122E-03    2.89      10.5  T
   4    -83.3749704 -0.107037E-06  0.369E-04    2.89      34.9  T
   5    -83.3749704 -0.293997E-08  0.226E-04    2.89      57.2  T
     SCC iter.                  ...        0 min,  0.014 sec
     gradient                   ...        0 min,  0.028 sec
 * total energy  :   -82.2966530 Eh     change       -0.1381036E-04 Eh
   gradient norm :     0.0008965 Eh/α   predicted    -0.9374196E-05 ( -32.12%)
   displ. norm   :     0.1360673 α      lambda       -0.1280582E-04
   maximum displ.:     0.0744168 α      in ANC's #2, #1, #4, ...

........................................................................
.............................. CYCLE   27 ..............................
........................................................................
   1    -83.3749063 -0.833749E+02  0.179E-02    2.89       0.0  T
   2    -83.3749063 -0.344787E-07  0.108E-02    2.89       1.2  T
   3    -83.3749062  0.107520E-06  0.154E-03    2.89       8.4  T
   4    -83.3749064 -0.127507E-06  0.390E-04    2.89      33.1  T
   5    -83.3749064 -0.123947E-08  0.237E-04    2.89      54.4  T
     SCC iter.                  ...        0 min,  0.014 sec
     gradient                   ...        0 min,  0.028 sec
 * total energy  :   -82.2966683 Eh     change       -0.1528743E-04 Eh
   gradient norm :     0.0023471 Eh/α   predicted    -0.6456448E-05 ( -57.77%)
   displ. norm   :     0.0894076 α      lambda       -0.1527150E-04
   maximum displ.:     0.0508662 α      in ANC's #2, #1, #4, ...

........................................................................
.............................. CYCLE   28 ..............................
........................................................................
   1    -83.3749874 -0.833750E+02  0.103E-02    2.89       0.0  T
   2    -83.3749874 -0.142092E-07  0.613E-03    2.89       2.1  T
   3    -83.3749874  0.678105E-07  0.110E-03    2.89      11.8  T
   4    -83.3749874 -0.758315E-07  0.269E-04    2.89      48.0  T
   5    -83.3749874 -0.183422E-08  0.140E-04    2.89      92.4  T
     SCC iter.                  ...        0 min,  0.014 sec
     gradient                   ...        0 min,  0.028 sec
 * total energy  :   -82.2966821 Eh     change       -0.1382075E-04 Eh
   gradient norm :     0.0016989 Eh/α   predicted    -0.7697376E-05 ( -44.31%)
   displ. norm   :     0.2485593 α      lambda       -0.2831901E-04
   maximum displ.:     0.1427365 α      in ANC's #1, #2, #4, ...

........................................................................
.............................. CYCLE   29 ..............................
........................................................................
   1    -83.3750294 -0.833750E+02  0.275E-02    2.89       0.0  T
   2    -83.3750296 -0.127881E-06  0.164E-02    2.89       1.0  T
   3    -83.3750289  0.674993E-06  0.338E-03    2.89       3.8  T
   4    -83.3750296 -0.748572E-06  0.737E-04    2.89      17.5  T
   5    -83.3750297 -0.144260E-07  0.373E-04    2.89      34.6  T
     SCC iter.                  ...        0 min,  0.014 sec
     gradient                   ...        0 min,  0.028 sec
 * total energy  :   -82.2967123 Eh     change       -0.3023551E-04 Eh
   gradient norm :     0.0019977 Eh/α   predicted    -0.1455074E-04 ( -51.88%)
   displ. norm   :     0.1845172 α      lambda       -0.1452790E-04
   maximum displ.:     0.1106895 α      in ANC's #1, #2, #4, ...

........................................................................
.............................. CYCLE   30 ..............................
........................................................................
   1    -83.3750129 -0.833750E+02  0.189E-02    2.89       0.0  T
   2    -83.3750130 -0.618612E-07  0.113E-02    2.89       1.1  T
   3    -83.3750128  0.228844E-06  0.181E-03    2.89       7.1  T
   4    -83.3750130 -0.251650E-06  0.540E-04    2.89      23.9  T
   5    -83.3750130 -0.105912E-07  0.248E-04    2.89      52.0  T
     SCC iter.                  ...        0 min,  0.014 sec
     gradient                   ...        0 min,  0.028 sec
 * total energy  :   -82.2967285 Eh     change       -0.1612376E-04 Eh
   gradient norm :     0.0036547 Eh/α   predicted    -0.7377019E-05 ( -54.25%)
   displ. norm   :     0.0999115 α      lambda       -0.1353891E-04
   maximum displ.:     0.0629911 α      in ANC's #1, #2, #4, ...

........................................................................
.............................. CYCLE   31 ..............................
........................................................................
   1    -83.3751188 -0.833751E+02  0.102E-02    2.89       0.0  T
   2    -83.3751188 -0.232649E-07  0.610E-03    2.89       2.1  T
   3    -83.3751186  0.189890E-06  0.160E-03    2.89       8.1  T
   4    -83.3751188 -0.206038E-06  0.279E-04    2.89      46.2  T
   5    -83.3751188 -0.290453E-08  0.147E-04    2.89      87.8  T
     SCC iter.                  ...        0 min,  0.014 sec
     gradient                   ...        0 min,  0.028 sec
 * total energy  :   -82.2967398 Eh     change       -0.1137367E-04 Eh
   gradient norm :     0.0008471 Eh/α   predicted    -0.6842056E-05 ( -39.84%)
   displ. norm   :     0.1684674 α      lambda       -0.1522028E-04
   maximum displ.:     0.1095890 α      in ANC's #1, #2, #4, ...

........................................................................
.............................. CYCLE   32 ..............................
........................................................................
   1    -83.3752791 -0.833753E+02  0.172E-02    2.89       0.0  T
   2    -83.3752792 -0.600217E-07  0.103E-02    2.89       1.3  T
   3    -83.3752790  0.186544E-06  0.162E-03    2.89       8.0  T
   4    -83.3752792 -0.199788E-06  0.484E-04    2.89      26.7  T
   5    -83.3752792 -0.125971E-07  0.212E-04    2.89      60.9  T
     SCC iter.                  ...        0 min,  0.014 sec
     gradient                   ...        0 min,  0.028 sec
 * total energy  :   -82.2967587 Eh     change       -0.1880455E-04 Eh
   gradient norm :     0.0021344 Eh/α   predicted    -0.7706697E-05 ( -59.02%)
   displ. norm   :     0.1165280 α      lambda       -0.1513979E-04
   maximum displ.:     0.0774636 α      in ANC's #1, #2, #4, ...

........................................................................
.............................. CYCLE   33 ..............................
........................................................................
   1    -83.3752449 -0.833752E+02  0.119E-02    2.89       0.0  T
   2    -83.3752449 -0.210899E-07  0.710E-03    2.89       1.8  T
   3    -83.3752449  0.526558E-07  0.962E-04    2.89      13.4  T
   4    -83.3752449 -0.587706E-07  0.297E-04    2.89      43.4  T
     SCC iter.                  ...        0 min,  0.011 sec
     gradient                   ...        0 min,  0.028 sec
 * total energy  :   -82.2967725 Eh     change       -0.1389518E-04 Eh
   gradient norm :     0.0013295 Eh/α   predicted    -0.7676911E-05 ( -44.75%)
   displ. norm   :     0.2469723 α      lambda       -0.2210588E-04
   maximum displ.:     0.1645276 α      in ANC's #1, #2, #6, ...

........................................................................
.............................. CYCLE   34 ..............................
........................................................................
   1    -83.3750906 -0.833751E+02  0.258E-02    2.89       0.0  T
   2    -83.3750907 -0.770812E-07  0.153E-02    2.89       1.0  T
   3    -83.3750903  0.352519E-06  0.243E-03    2.89       5.3  T
   4    -83.3750907 -0.395668E-06  0.571E-04    2.89      22.6  T
   5    -83.3750907 -0.654562E-08  0.285E-04    2.89      45.2  T
     SCC iter.                  ...        0 min,  0.014 sec
     gradient                   ...        0 min,  0.028 sec
 * total energy  :   -82.2968000 Eh     change       -0.2746164E-04 Eh
   gradient norm :     0.0010970 Eh/α   predicted    -0.1135504E-04 ( -58.65%)
   displ. norm   :     0.2482057 α      lambda       -0.1828163E-04
   maximum displ.:     0.1674706 α      in ANC's #1, #2, #6, ...

........................................................................
.............................. CYCLE   35 ..............................
........................................................................
   1    -83.3749989 -0.833750E+02  0.247E-02    2.89       0.0  T
   2    -83.3749990 -0.618011E-07  0.147E-02    2.89       1.0  T
   3    -83.3749987  0.301676E-06  0.225E-03    2.89       5.7  T
   4    -83.3749990 -0.342559E-06  0.532E-04    2.89      24.3  T
   5    -83.3749990 -0.394149E-08  0.280E-04    2.89      46.1  T
     SCC iter.                  ...        0 min,  0.014 sec
     gradient                   ...        0 min,  0.028 sec
 * total energy  :   -82.2968223 Eh     change       -0.2232638E-04 Eh
   gradient norm :     0.0007016 Eh/α   predicted    -0.9394355E-05 ( -57.92%)
   displ. norm   :     0.1937662 α      lambda       -0.1203281E-04
   maximum displ.:     0.1335664 α      in ANC's #1, #2, #6, ...

........................................................................
.............................. CYCLE   36 ..............................
........................................................................
   1    -83.3751825 -0.833752E+02  0.183E-02    2.89       0.0  T
   2    -83.3751826 -0.321104E-07  0.110E-02    2.89       1.2  T
   3    -83.3751825  0.705483E-07  0.119E-03    2.89      10.9  T
   4    -83.3751826 -0.855268E-07  0.412E-04    2.89      31.3  T
   5    -83.3751826 -0.322645E-08  0.207E-04    2.89      62.5  T
     SCC iter.                  ...        0 min,  0.014 sec
     gradient                   ...        0 min,  0.028 sec
 * total energy  :   -82.2968370 Eh     change       -0.1471317E-04 Eh
   gradient norm :     0.0007313 Eh/α   predicted    -0.6118757E-05 ( -58.41%)
   displ. norm   :     0.1503190 α      lambda       -0.8572463E-05
   maximum displ.:     0.1059754 α      in ANC's #1, #2, #6, ...

........................................................................
.............................. CYCLE   37 ..............................
........................................................................
   1    -83.3752554 -0.833753E+02  0.139E-02    2.89       0.0  T
   2    -83.3752554 -0.196828E-07  0.838E-03    2.89       1.5  T
   3    -83.3752554  0.836849E-08  0.586E-04    2.89      22.0  T
   4    -83.3752554 -0.142217E-07  0.293E-04    2.89      44.0  T
     SCC iter.                  ...        0 min,  0.011 sec
     gradient                   ...        0 min,  0.028 sec
 * total energy  :   -82.2968479 Eh     change       -0.1081266E-04 Eh
   gradient norm :     0.0004509 Eh/α   predicted    -0.4330084E-05 ( -59.95%)
   displ. norm   :     0.1359965 α      lambda       -0.8085985E-05
   maximum displ.:     0.0971893 α      in ANC's #1, #2, #5, ...

........................................................................
.............................. CYCLE   38 ..............................
........................................................................
   1    -83.3753112 -0.833753E+02  0.119E-02    2.89       0.0  T
   2    -83.3753112 -0.125389E-07  0.722E-03    2.89       1.8  T
   3    -83.3753109  0.293447E-06  0.212E-03    2.89       6.1  T
   4    -83.3753113 -0.317074E-06  0.259E-04    2.89      49.8  T
   5    -83.3753113 -0.696289E-09  0.154E-04    2.89      84.1  T
     SCC iter.                  ...        0 min,  0.014 sec
     gradient                   ...        0 min,  0.028 sec
 * total energy  :   -82.2968585 Eh     change       -0.1066437E-04 Eh
   gradient norm :     0.0008765 Eh/α   predicted    -0.4077487E-05 ( -61.77%)
   displ. norm   :     0.1609533 α      lambda       -0.9761789E-05
   maximum displ.:     0.1147843 α      in ANC's #1, #2, #5, ...

........................................................................
.............................. CYCLE   39 ..............................
........................................................................
   1    -83.3752666 -0.833753E+02  0.148E-02    2.90       0.0  T
   2    -83.3752666 -0.263166E-07  0.892E-03    2.90       1.4  T
   3    -83.3752661  0.565118E-06  0.290E-03    2.90       4.5  T
   4    -83.3752667 -0.611502E-06  0.372E-04    2.90      34.7  T
   5    -83.3752667 -0.307385E-08  0.200E-04    2.90      64.5  T
     SCC iter.                  ...        0 min,  0.014 sec
     gradient                   ...        0 min,  0.028 sec
 * total energy  :   -82.2968715 Eh     change       -0.1298977E-04 Eh
   gradient norm :     0.0005624 Eh/α   predicted    -0.4938428E-05 ( -61.98%)
   displ. norm   :     0.2062972 α      lambda       -0.1167285E-04
   maximum displ.:     0.1469313 α      in ANC's #1, #2, #4, ...

........................................................................
.............................. CYCLE   40 ..............................
........................................................................
   1    -83.3750998 -0.833751E+02  0.190E-02    2.90       0.0  T
   2    -83.3750999 -0.378868E-07  0.115E-02    2.90       1.1  T
   3    -83.3750986  0.124362E-05  0.436E-03    2.90       3.0  T
   4    -83.3751000 -0.134683E-05  0.472E-04    2.90      27.4  T
   5    -83.3751000 -0.479697E-08  0.263E-04    2.90      49.0  T
   6    -83.3751000  0.123663E-09  0.121E-04    2.90     107.0  T
     SCC iter.                  ...        0 min,  0.016 sec
     gradient                   ...        0 min,  0.028 sec
 * total energy  :   -82.2968864 Eh     change       -0.1493434E-04 Eh
   gradient norm :     0.0006453 Eh/α   predicted    -0.5947612E-05 ( -60.17%)
   displ. norm   :     0.2301303 α      lambda       -0.1104106E-04
   maximum displ.:     0.1640283 α      in ANC's #1, #2, #4, ...

........................................................................
.............................. CYCLE   41 ..............................
........................................................................
   1    -83.3749474 -0.833749E+02  0.212E-02    2.90       0.0  T
   2    -83.3749475 -0.620055E-07  0.128E-02    2.90       1.0  T
   3    -83.3749461  0.142041E-05  0.460E-03    2.90       2.8  T
   4    -83.3749476 -0.153916E-05  0.576E-04    2.90      22.4  T
   5    -83.3749476 -0.842986E-08  0.300E-04    2.90      43.1  T
   6    -83.3749476  0.422801E-09  0.143E-04    2.90      90.1  T
     SCC iter.                  ...        0 min,  0.016 sec
     gradient                   ...        0 min,  0.028 sec
 * total energy  :   -82.2969002 Eh     change       -0.1371552E-04 Eh
   gradient norm :     0.0005043 Eh/α   predicted    -0.5650719E-05 ( -58.80%)
   displ. norm   :     0.2296988 α      lambda       -0.9446604E-05
   maximum displ.:     0.1639364 α      in ANC's #1, #2, #4, ...

........................................................................
.............................. CYCLE   42 ..............................
........................................................................
   1    -83.3748321 -0.833748E+02  0.210E-02    2.90       0.0  T
   2    -83.3748321 -0.477277E-07  0.127E-02    2.90       1.0  T
   3    -83.3748307  0.141223E-05  0.470E-03    2.90       2.7  T
   4    -83.3748323 -0.153038E-05  0.504E-04    2.90      25.6  T
   5    -83.3748323 -0.428979E-08  0.288E-04    2.90      44.8  T
   6    -83.3748323 -0.288892E-09  0.137E-04    2.90      94.4  T
     SCC iter.                  ...        0 min,  0.016 sec
     gradient                   ...        0 min,  0.028 sec
 * total energy  :   -82.2969119 Eh     change       -0.1173310E-04 Eh
   gradient norm :     0.0005382 Eh/α   predicted    -0.4834614E-05 ( -58.80%)
   displ. norm   :     0.2433406 α      lambda       -0.9283278E-05
   maximum displ.:     0.1734381 α      in ANC's #1, #2, #4, ...
 * RMSD in coord.:     0.4072486 α      energy gain  -0.3950623E-03 Eh

generating ANC from model Hessian ...
Using Lindh-Hessian (1995)
 Shifting diagonal of input Hessian by    9.9039169346659458E-003
 Lowest  eigenvalues of input Hessian
    0.000000    0.000000    0.000000    0.000000    0.000000    0.000000
    0.010000    0.010034    0.010086    0.010161    0.010848    0.011743
    0.012305    0.013160    0.013218    0.013407    0.014676    0.015095
 Highest eigenvalues
    1.725354    1.884240    1.909079    1.915168    8.636986    8.735090


........................................................................
.............................. CYCLE   43 ..............................
........................................................................
   1    -83.3747371 -0.833747E+02  0.223E-02    2.90       0.0  T
   2    -83.3747371 -0.690826E-07  0.134E-02    2.90       1.0  T
   3    -83.3747360  0.109198E-05  0.404E-03    2.90       3.2  T
   4    -83.3747372 -0.118825E-05  0.584E-04    2.90      22.1  T
   5    -83.3747372 -0.724822E-08  0.310E-04    2.90      41.6  T
   6    -83.3747372 -0.115335E-09  0.136E-04    2.90      94.6  T
     SCC iter.                  ...        0 min,  0.016 sec
     gradient                   ...        0 min,  0.028 sec
 * total energy  :   -82.2969233 Eh     change       -0.1142336E-04 Eh
   gradient norm :     0.0007011 Eh/α   predicted     0.0000000E+00 (-100.00%)
   displ. norm   :     0.0192493 α      lambda        0.1319864E-06
   maximum displ.:     0.0088804 α      in ANC's #4, #7, #1, ...

........................................................................
.............................. CYCLE   44 ..............................
........................................................................
   1    -83.3751101 -0.833751E+02  0.329E-03    2.90       0.0  T
   2    -83.3751102 -0.839886E-08  0.195E-03    2.90       6.6  T
   3    -83.3751101  0.836616E-08  0.423E-04    2.90      30.5  T
   4    -83.3751102 -0.100674E-07  0.990E-05    2.90     130.5  T
     SCC iter.                  ...        0 min,  0.011 sec
     gradient                   ...        0 min,  0.028 sec
 * total energy  :   -82.2969268 Eh     change       -0.3503909E-05 Eh
   gradient norm :     0.0008532 Eh/α   predicted    -0.1433526E-05 ( -59.09%)
   displ. norm   :     0.0740045 α      lambda       -0.7908874E-05
   maximum displ.:     0.0335025 α      in ANC's #4, #7, #5, ...

   *** GEOMETRY OPTIMIZATION CONVERGED AFTER 44 ITERATIONS ***

------------------------------------------------------------------------
 total energy gain   :        -0.1783655 Eh     -111.9260 kcal/mol
 total RMSD          :         0.4281880 a0        0.2266 Å
 total power (kW/mol):       -10.6431474 (step) -201.1498 (real)
------------------------------------------------------------------------

 ANCopt (total)                0 d,  0 h,  0 min,  2.328 sec
 optimizer setup                ...        0 min,  0.000 sec (  0.005%)
 model hessian                  ...        0 min,  0.097 sec (  4.174%)
 ANC generation                 ...        0 min,  0.008 sec (  0.346%)
 coordinate transformation      ...        0 min,  0.001 sec (  0.029%)
 single point calculation       ...        0 min,  2.207 sec ( 94.782%)
 optimization log               ...        0 min,  0.009 sec (  0.400%)
 hessian update                 ...        0 min,  0.001 sec (  0.043%)
 rational function              ...        0 min,  0.003 sec (  0.143%)

================
 final structure:
================
60
 xtb: 6.5.0 (homebrew)
C            3.44436237113287      -37.79202606225873       15.95431436631132
C            3.71464440919119      -38.20173745550840       17.40036257014188
O            3.23848000697528      -37.18594958486125       18.28098116932546
C            2.91974369155044      -39.47491933385873       17.71788569237992
C            5.23469541521366      -38.32066280560327       17.78252651044010
C            5.77721744440577      -39.74732438194895       17.82936291784861
C            6.14342097317328      -37.46807428979782       16.88738758405313
O            5.28597452792339      -37.74843992746569       19.08839663777838
B            4.14328542838139      -37.02313006522483       19.29702764083665
C            3.89980998850517      -36.12882713492492       20.54207270328590
C            4.93417029219132      -35.90107235843996       21.41741633193804
C            4.97991449468085      -35.02650211807953       22.50465663333391
H            5.93153498473609      -34.90063998747085       23.00069739612919
C            3.83367406993143      -34.26095815169600       23.10135378475589
H            4.06852889145201      -33.89593856915514       24.09942739703403
C            2.46564964782696      -34.86186589293472       23.10327711349343
B            1.70190098131379      -34.88773509213095       24.46408327486737
O            2.22061672307526      -34.39493989468582       25.63072905796337
C            1.35172267884325      -34.74967486219954       26.70545742463027
C            1.23081895157572      -33.57543821831617       27.67410217535214
C            2.00458800930056      -35.93364198533992       27.43025576427933
C            0.01928217656943      -35.14284689656360       25.96969123816394
C           -0.98049143258619      -33.98248853243378       25.88565877185282
C           -0.68959430534800      -36.37232206376126       26.53335520837858
O            0.45376540220100      -35.41491463265311       24.63726379550201
C            1.92325906661938      -35.38901442959099       22.00548543577311
C            2.54912050714946      -35.45483119766783       20.65558284746827
H            1.85911153258285      -35.92813648867938       19.95667613955886
C            3.07315136947896      -34.18450088899441       20.06410176648228
C            3.82104656080422      -33.24894673788966       20.70853581796565
C            4.25040370222972      -33.28793974901777       22.04215053190428
H            4.93621279870538      -32.51707806160319       22.36325354897865
H            2.36963839204147      -37.75211157800312       15.79480969358917
H            3.87444508525576      -38.51974872236698       15.27144387614879
H            3.85243403348991      -36.80945775736058       15.74076017249343
H            1.86132504257016      -39.26424130491500       17.58226964673758
H            3.07443581704028      -39.76453398876345       18.75427991085137
H            3.20472153989256      -40.29077761120652       17.06048478105213
H            5.66086492842857      -40.22591866651963       16.86069247151406
H            5.27052834222001      -40.33450711128604       18.58825529102390
H            6.83443584259811      -39.71364300904306       18.08053422245804
H            6.19307970925016      -37.87053148026737       15.88006150565679
H            7.14265054921791      -37.46294279442126       17.31690853652819
H            5.78651162812126      -36.44161180678251       16.85798102192426
H            5.86839802820981      -36.39084051403380       21.16841619629568
H            2.19642539319110      -33.40471955006893       28.14368881777809
H            0.49958961449579      -33.79930627972410       28.44605382422628
H            0.94396479803100      -32.66661491322575       27.15517844259375
H            2.99272142727156      -35.62927484026988       27.76784406796755
H            2.12702590823642      -36.77012215465921       26.74679587438962
H            1.41660597253180      -36.24169325634612       28.28950721198873
H           -1.38975021320115      -33.74500508534020       26.86303170870815
H           -1.79191711700459      -34.27411370368334       25.22296308745979
H           -0.50179388906695      -33.10318556008933       25.46228750329007
H           -0.95659909979898      -36.20859692945967       27.57392754748820
H           -0.06568875315023      -37.25641248306880       26.45302223529633
H           -1.59665203725562      -36.54770326411064       25.96036951827663
H            0.93386789332384      -35.81818532094923       22.08732883555066
H            2.90799610727725      -34.06714552280105       19.00279563796287
H            4.21444369697499      -32.43146694048801       20.11468911254863

 Bond Distances (Angstroems)
 ---------------------------
C1-C2=1.5271         C1-H33=1.0872        C1-H34=1.0867        C1-H35=1.0852        C2-C1=1.5271         C2-O3=1.4262         
C2-C4=1.5342         C2-C5=1.5719         O3-C2=1.4262         O3-B9=1.3702         C4-C2=1.5342         C4-H36=1.0877        
C4-H37=1.0872        C4-H38=1.0858        C5-C2=1.5719         C5-C6=1.5271         C5-C7=1.5343         C5-O8=1.4267         
C6-C5=1.5271         C6-H39=1.0867        C6-H40=1.0851        C6-H41=1.0872        C7-C5=1.5343         C7-H42=1.0859        
C7-H43=1.0876        C7-H44=1.0871        O8-C5=1.4267         O8-B9=1.3694         B9-O3=1.3702         B9-O8=1.3694         
B9-C10=1.5522        C10-B9=1.5522        C10-C11=1.3740       C10-C27=1.5138       C11-C10=1.3740       C11-C12=1.3961       
C11-H45=1.0838       C12-C11=1.3961       C12-H13=1.0805       C12-C14=1.5020       C12-C31=1.9413       H13-C12=1.0805       
C14-C12=1.5020       C14-H15=1.0884       C14-C16=1.4942       C14-C31=1.4974       H15-C14=1.0884       C16-C14=1.4942       
C16-B17=1.5607       C16-C26=1.3331       B17-C16=1.5607       B17-O18=1.3686       B17-O25=1.3659       O18-B17=1.3686       
O18-C19=1.4268       C19-O18=1.4268       C19-C20=1.5270       C19-C21=1.5341       C19-C22=1.5720       C20-C19=1.5270       
C20-H46=1.0872       C20-H47=1.0866       C20-H48=1.0851       C21-C19=1.5341       C21-H49=1.0877       C21-H50=1.0871       
C21-H51=1.0858       C22-C19=1.5720       C22-C23=1.5340       C22-C24=1.5270       C22-O25=1.4276       C23-C22=1.5340       
C23-H52=1.0859       C23-H53=1.0875       C23-H54=1.0870       C24-C22=1.5270       C24-H55=1.0867       C24-H56=1.0850       
C24-H57=1.0871       O25-B17=1.3659       O25-C22=1.4276       C26-C16=1.3331       C26-C27=1.4894       C26-H58=1.0816       
C27-C10=1.5138       C27-C26=1.4894       C27-H28=1.0902       C27-C29=1.4961       H28-C27=1.0902       C29-C27=1.4961       
C29-C30=1.3601       C29-H59=1.0805       C30-C29=1.3601       C30-C31=1.4016       C30-H60=1.0843       C31-C12=1.9413       
C31-C14=1.4974       C31-C30=1.4016       C31-H32=1.0806       H32-C31=1.0806       H33-C1=1.0872        H34-C1=1.0867        
H35-C1=1.0852        H36-C4=1.0877        H37-C4=1.0872        H38-C4=1.0858        H39-C6=1.0867        H40-C6=1.0851        
H41-C6=1.0872        H42-C7=1.0859        H43-C7=1.0876        H44-C7=1.0871        H45-C11=1.0838       H46-C20=1.0872       
H47-C20=1.0866       H48-C20=1.0851       H49-C21=1.0877       H50-C21=1.0871       H51-C21=1.0858       H52-C23=1.0859       
H53-C23=1.0875       H54-C23=1.0870       H55-C24=1.0867       H56-C24=1.0850       H57-C24=1.0871       H58-C26=1.0816       
H59-C29=1.0805       H60-C30=1.0843       
 C  H  Rav=1.0859 sigma=0.0023  Rmin=1.0805  Rmax=1.0902    32
 C  B  Rav=1.5564 sigma=0.0043  Rmin=1.5522  Rmax=1.5607     2
 C  C  Rav=1.5085 sigma=0.1158  Rmin=1.3331  Rmax=1.9413    22
 O  B  Rav=1.3685 sigma=0.0016  Rmin=1.3659  Rmax=1.3702     4
 O  C  Rav=1.4268 sigma=0.0005  Rmin=1.4262  Rmax=1.4276     4

 selected bond angles (degree)
 --------------------
H33-C1-C2=108.89               H34-C1-C2=110.20               H34-C1-H33=108.88              H35-C1-C2=111.27               
H35-C1-H33=108.04              H35-C1-H34=109.50              O3-C2-C1=109.54                C4-C2-C1=109.08                
C4-C2-O3=106.88                C5-C2-C1=114.94                C5-C2-O3=103.10                C5-C2-C4=112.83                
B9-O3-C2=108.79                H36-C4-C2=108.52               H37-C4-C2=110.16               H37-C4-H36=107.99              
H38-C4-C2=111.24               H38-C4-H36=108.99              H38-C4-H37=109.86              C6-C5-C2=114.94                
C7-C5-C2=112.88                C7-C5-C6=109.06                O8-C5-C2=103.12                O8-C5-C6=109.50                
O8-C5-C7=106.85                H39-C6-C5=110.25               H40-C6-C5=111.17               H40-C6-H39=109.58              
H41-C6-C5=108.88               H41-C6-H39=108.89              H41-C6-H40=108.02              H42-C7-C5=111.24               
H43-C7-C5=108.44               H43-C7-H42=109.03              H44-C7-C5=110.24               H44-C7-H42=109.87              
H44-C7-H43=107.93              B9-O8-C5=108.78                O8-B9-O3=112.03                C10-B9-O3=124.03               
C10-B9-O8=123.94               C11-C10-B9=119.24              C27-C10-B9=117.17              C27-C10-C11=123.37             

 selected dihedral angles (degree)
 ---------------------------------
O3-C2-C1-H33=294.79           O3-C2-C1-H34=175.43           O3-C2-C1-H35= 53.76           C4-C2-C1-H33= 51.45           
C4-C2-C1-H34=292.09           C4-C2-C1-H35=170.42           C5-C2-C1-H33=179.31           C5-C2-C1-H34= 59.94           
C5-C2-C1-H35=298.27           B9-O3-C2-C1=220.40            B9-O3-C2-C4=102.35            B9-O3-C2-C5=343.22            
H36-C4-C2-C1=299.86           H36-C4-C2-O3= 58.21           H36-C4-C2-C5=170.83           H37-C4-C2-C1=181.82           
H37-C4-C2-O3=300.17           H37-C4-C2-C5= 52.79           H38-C4-C2-C1= 59.75           H38-C4-C2-O3=178.10           
H38-C4-C2-C5=290.72           C6-C5-C2-C1=258.44            C6-C5-C2-O3=139.30            C6-C5-C2-C4= 24.38            
C7-C5-C2-C1= 24.41            C7-C5-C2-O3=265.26            C7-C5-C2-C4=150.35            O8-C5-C2-C1=139.33            
O8-C5-C2-O3= 20.19            O8-C5-C2-C4=265.27            H39-C6-C5-C2= 59.41           H39-C6-C5-C7=291.50           
H39-C6-C5-O8=174.90           H40-C6-C5-C2=297.69           H40-C6-C5-C7=169.77           H40-C6-C5-O8= 53.17           
H41-C6-C5-C2=178.81           H41-C6-C5-C7= 50.89           H41-C6-C5-O8=294.29           H42-C7-C5-C2=290.04           
H42-C7-C5-C6= 59.10           H42-C7-C5-O8=177.38           H43-C7-C5-C2=170.14           H43-C7-C5-C6=299.20           
H43-C7-C5-O8= 57.48           H44-C7-C5-C2= 52.18           H44-C7-C5-C6=181.24           H44-C7-C5-O8=299.52           
B9-O8-C5-C2=343.26            B9-O8-C5-C6=220.45            B9-O8-C5-C7=102.46            O8-B9-O3-C2=  7.21            
C10-B9-O3-C2=187.53           O3-B9-O8-C5=  7.13            C10-B9-O8-C5=186.80           C11-C10-B9-O3=188.16          
C11-C10-B9-O8=  8.53          C27-C10-B9-O3=  2.99          C27-C10-B9-O8=183.36          
           -------------------------------------------------
          |                Final Singlepoint                |
           -------------------------------------------------

          ...................................................
          :                      SETUP                      :
          :.................................................:
          :  # basis functions                 144          :
          :  # atomic orbitals                 144          :
          :  # shells                           88          :
          :  # electrons                       150          :
          :  max. iterations                   250          :
          :  Hamiltonian                  GFN2-xTB          :
          :  restarted?                      false          :
          :  GBSA solvation                  false          :
          :  PC potential                    false          :
          :  electronic temp.          300.0000000     K    :
          :  accuracy                    1.0000000          :
          :  -> integral cutoff          0.2500000E+02      :
          :  -> integral neglect         0.1000000E-07      :
          :  -> SCF convergence          0.1000000E-05 Eh   :
          :  -> wf. convergence          0.1000000E-03 e    :
          :  Broyden damping             0.4000000          :
          ...................................................

 iter      E             dE          RMSdq      gap      omega  full diag
   1    -83.3751102 -0.833751E+02  0.523E-05    2.90       0.0  T
   2    -83.3751102  0.143530E-11  0.415E-05    2.90     310.9  T
   3    -83.3751102 -0.720632E-10  0.199E-05    2.90     647.4  T

   *** convergence criteria satisfied after 3 iterations ***

         #    Occupation            Energy/Eh            Energy/eV
      -------------------------------------------------------------
         1        2.0000           -0.6876421             -18.7117
       ...           ...                  ...                  ...
        69        2.0000           -0.4047398             -11.0135
        70        2.0000           -0.3972902             -10.8108
        71        2.0000           -0.3957610             -10.7692
        72        2.0000           -0.3929726             -10.6933
        73        2.0000           -0.3880008             -10.5580
        74        2.0000           -0.3539076              -9.6303
        75        2.0000           -0.3426191              -9.3231 (HOMO)
        76                         -0.2361076              -6.4248 (LUMO)
        77                         -0.2175390              -5.9195
        78                         -0.1896451              -5.1605
        79                         -0.1231422              -3.3509
        80                         -0.0978880              -2.6637
       ...                                ...                  ...
       144                          0.6874028              18.7052
      -------------------------------------------------------------
                  HL-Gap            0.1065115 Eh            2.8983 eV
             Fermi-level           -0.2893633 Eh           -7.8740 eV

 SCC (total)                   0 d,  0 h,  0 min,  0.044 sec
 SCC setup                      ...        0 min,  0.000 sec (  0.522%)
 Dispersion                     ...        0 min,  0.000 sec (  0.883%)
 classical contributions        ...        0 min,  0.000 sec (  0.400%)
 integral evaluation            ...        0 min,  0.006 sec ( 13.799%)
 iterations                     ...        0 min,  0.008 sec ( 19.357%)
 molecular gradient             ...        0 min,  0.028 sec ( 64.228%)
 printout                       ...        0 min,  0.000 sec (  0.800%)

         :::::::::::::::::::::::::::::::::::::::::::::::::::::
         ::                     SUMMARY                     ::
         :::::::::::::::::::::::::::::::::::::::::::::::::::::
         :: total energy             -82.296926825735 Eh    ::
         :: gradient norm              0.000853200505 Eh/a0 ::
         :: HOMO-LUMO gap              2.898324938661 eV    ::
         ::.................................................::
         :: SCC energy               -83.375110153705 Eh    ::
         :: -> isotropic ES            0.147659568143 Eh    ::
         :: -> anisotropic ES          0.012190206106 Eh    ::
         :: -> anisotropic XC          0.026940377442 Eh    ::
         :: -> dispersion             -0.061932992455 Eh    ::
         :: repulsion energy           1.077424783630 Eh    ::
         :: add. restraining           0.000070167815 Eh    ::
         :: total charge               0.000000000000 e     ::
         :::::::::::::::::::::::::::::::::::::::::::::::::::::

           -------------------------------------------------
          |                Property Printout                |
           -------------------------------------------------

    * Orbital Energies and Occupations

         #    Occupation            Energy/Eh            Energy/eV
      -------------------------------------------------------------
         1        2.0000           -0.6876421             -18.7117
       ...           ...                  ...                  ...
        63        2.0000           -0.4349136             -11.8346
        64        2.0000           -0.4307580             -11.7215
        65        2.0000           -0.4278805             -11.6432
        66        2.0000           -0.4204001             -11.4397
        67        2.0000           -0.4193238             -11.4104
        68        2.0000           -0.4146777             -11.2840
        69        2.0000           -0.4047398             -11.0135
        70        2.0000           -0.3972902             -10.8108
        71        2.0000           -0.3957610             -10.7692
        72        2.0000           -0.3929726             -10.6933
        73        2.0000           -0.3880008             -10.5580
        74        2.0000           -0.3539076              -9.6303
        75        2.0000           -0.3426191              -9.3231 (HOMO)
        76                         -0.2361076              -6.4248 (LUMO)
        77                         -0.2175390              -5.9195
        78                         -0.1896451              -5.1605
        79                         -0.1231422              -3.3509
        80                         -0.0978880              -2.6637
        81                         -0.0721321              -1.9628
        82                          0.0088077               0.2397
        83                          0.0122750               0.3340
        84                          0.0287327               0.7819
        85                          0.0302609               0.8234
        86                          0.0568962               1.5482
       ...                                ...                  ...
       144                          0.6874028              18.7052
      -------------------------------------------------------------
                  HL-Gap            0.1065115 Eh            2.8983 eV
             Fermi-level           -0.2893633 Eh           -7.8740 eV

     #   Z          covCN         q      C6AA      α(0)
     1   6 C        3.755    -0.117    22.788     6.807
     2   6 C        3.859     0.129    18.446     6.108
     3   8 O        1.638    -0.375    20.389     6.095
     4   6 C        3.755    -0.116    22.772     6.804
     5   6 C        3.859     0.130    18.445     6.108
     6   6 C        3.755    -0.117    22.798     6.808
     7   6 C        3.755    -0.115    22.763     6.803
     8   8 O        1.638    -0.375    20.384     6.094
     9   5 B        2.659     0.432    15.563     6.642
    10   6 C        3.049    -0.081    29.977     8.980
    11   6 C        2.893    -0.042    29.034     8.834
    12   6 C        3.498    -0.020    22.624     7.063
    13   1 H        0.926     0.030     2.585     2.514
    14   6 C        3.864    -0.010    20.711     6.472
    15   1 H        0.925     0.047     2.352     2.399
    16   6 C        2.863    -0.084    30.095     8.992
    17   5 B        2.661     0.431    15.563     6.641
    18   8 O        1.638    -0.373    20.333     6.087
    19   6 C        3.859     0.129    18.455     6.109
    20   6 C        3.755    -0.117    22.799     6.808
    21   6 C        3.755    -0.116    22.780     6.805
    22   6 C        3.860     0.129    18.457     6.110
    23   6 C        3.755    -0.117    22.787     6.806
    24   6 C        3.755    -0.118    22.808     6.810
    25   8 O        1.638    -0.369    20.274     6.078
    26   6 C        2.897    -0.025    28.628     8.773
    27   6 C        3.863    -0.013    20.760     6.480
    28   1 H        0.924     0.046     2.376     2.411
    29   6 C        3.076    -0.026    28.576     8.764
    30   6 C        2.888    -0.046    29.144     8.851
    31   6 C        3.500    -0.017    22.523     7.043
    32   1 H        0.926     0.031     2.579     2.511
    33   1 H        0.925     0.054     2.273     2.357
    34   1 H        0.925     0.039     2.462     2.454
    35   1 H        0.925     0.051     2.308     2.376
    36   1 H        0.925     0.052     2.300     2.372
    37   1 H        0.925     0.043     2.403     2.424
    38   1 H        0.925     0.042     2.426     2.436
    39   1 H        0.925     0.039     2.458     2.452
    40   1 H        0.925     0.052     2.296     2.369
    41   1 H        0.925     0.054     2.273     2.358
    42   1 H        0.925     0.042     2.422     2.434
    43   1 H        0.925     0.051     2.302     2.373
    44   1 H        0.925     0.043     2.414     2.430
    45   1 H        0.925     0.034     2.533     2.489
    46   1 H        0.925     0.054     2.271     2.357
    47   1 H        0.925     0.040     2.451     2.448
    48   1 H        0.925     0.052     2.295     2.369
    49   1 H        0.925     0.052     2.296     2.370
    50   1 H        0.925     0.044     2.398     2.422
    51   1 H        0.925     0.043     2.416     2.430
    52   1 H        0.925     0.043     2.413     2.429
    53   1 H        0.925     0.053     2.286     2.364
    54   1 H        0.925     0.044     2.397     2.421
    55   1 H        0.925     0.040     2.449     2.447
    56   1 H        0.925     0.052     2.293     2.368
    57   1 H        0.925     0.055     2.261     2.351
    58   1 H        0.925     0.038     2.480     2.462
    59   1 H        0.926     0.029     2.596     2.520
    60   1 H        0.925     0.023     2.692     2.566

 Mol. C6AA /au·bohr⁶  :      32931.948477
 Mol. C8AA /au·bohr⁸  :     762867.832180
 Mol. α(0) /au        :        274.257881


Wiberg/Mayer (AO) data.
largest (>0.10) Wiberg bond orders for each atom

 ---------------------------------------------------------------------------
     #   Z sym  total        # sym  WBO       # sym  WBO       # sym  WBO
 ---------------------------------------------------------------------------
     1   6 C    3.994 --     2 C    0.997    34 H    0.985    33 H    0.983
                            35 H    0.982
     2   6 C    3.944 --     1 C    0.997     4 C    0.990     3 O    0.954
                             5 C    0.937
     3   8 O    2.223 --     9 B    1.118     2 C    0.954
     4   6 C    3.994 --     2 C    0.990    38 H    0.984    37 H    0.984
                            36 H    0.983
     5   6 C    3.943 --     6 C    0.996     7 C    0.990     8 O    0.954
                             2 C    0.937
     6   6 C    3.994 --     5 C    0.996    39 H    0.985    41 H    0.983
                            40 H    0.982
     7   6 C    3.995 --     5 C    0.990    42 H    0.985    44 H    0.984
                            43 H    0.983
     8   8 O    2.224 --     9 B    1.120     5 C    0.954
     9   5 B    3.382 --     8 O    1.120     3 O    1.118    10 C    1.017
    10   6 C    3.954 --    11 C    1.532     9 B    1.017    27 C    0.943
                            29 C    0.213    31 C    0.119
    11   6 C    3.990 --    10 C    1.532    12 C    1.353    45 H    0.962
    12   6 C    3.947 --    11 C    1.353    13 H    0.974    14 C    0.946
                            31 C    0.481    29 C    0.116
    13   1 H    0.999 --    12 C    0.974
    14   6 C    3.981 --    16 C    1.008    15 H    0.967    31 C    0.959
                            12 C    0.946
    15   1 H    0.997 --    14 C    0.967
    16   6 C    3.977 --    26 C    1.845    14 C    1.008    17 B    0.998
    17   5 B    3.376 --    25 O    1.134    18 O    1.127    16 C    0.998
    18   8 O    2.232 --    17 B    1.127    19 C    0.953
    19   6 C    3.943 --    20 C    0.997    21 C    0.991    18 O    0.953
                            22 C    0.936
    20   6 C    3.994 --    19 C    0.997    47 H    0.984    46 H    0.983
                            48 H    0.982
    21   6 C    3.994 --    19 C    0.991    51 H    0.984    50 H    0.984
                            49 H    0.983
    22   6 C    3.942 --    24 C    0.996    23 C    0.991    25 O    0.952
                            19 C    0.936
    23   6 C    3.995 --    22 C    0.991    52 H    0.984    54 H    0.984
                            53 H    0.983
    24   6 C    3.994 --    22 C    0.996    55 H    0.985    57 H    0.983
                            56 H    0.982
    25   8 O    2.237 --    17 B    1.134    22 C    0.952
    26   6 C    3.987 --    16 C    1.845    27 C    1.014    58 H    0.967
    27   6 C    3.991 --    26 C    1.014    29 C    0.973    28 H    0.969
                            10 C    0.943
    28   1 H    0.998 --    27 C    0.969
    29   6 C    3.969 --    30 C    1.596    27 C    0.973    59 H    0.972
                            10 C    0.213    12 C    0.116
    30   6 C    3.989 --    29 C    1.596    31 C    1.323    60 H    0.964
    31   6 C    3.936 --    30 C    1.323    32 H    0.974    14 C    0.959
                            12 C    0.481    10 C    0.119
    32   1 H    0.999 --    31 C    0.974
    33   1 H    0.997 --     1 C    0.983
    34   1 H    0.998 --     1 C    0.985
    35   1 H    0.997 --     1 C    0.982
    36   1 H    0.997 --     4 C    0.983
    37   1 H    0.998 --     4 C    0.984
    38   1 H    0.998 --     4 C    0.984
    39   1 H    0.998 --     6 C    0.985
    40   1 H    0.997 --     6 C    0.982
    41   1 H    0.997 --     6 C    0.983
    42   1 H    0.998 --     7 C    0.985
    43   1 H    0.997 --     7 C    0.983
    44   1 H    0.998 --     7 C    0.984
    45   1 H    0.999 --    11 C    0.962
    46   1 H    0.997 --    20 C    0.983
    47   1 H    0.998 --    20 C    0.984
    48   1 H    0.997 --    20 C    0.982
    49   1 H    0.997 --    21 C    0.983
    50   1 H    0.998 --    21 C    0.984
    51   1 H    0.998 --    21 C    0.984
    52   1 H    0.998 --    23 C    0.984
    53   1 H    0.997 --    23 C    0.983
    54   1 H    0.998 --    23 C    0.984
    55   1 H    0.998 --    24 C    0.985
    56   1 H    0.997 --    24 C    0.982
    57   1 H    0.997 --    24 C    0.983
    58   1 H    0.998 --    26 C    0.967
    59   1 H    0.999 --    29 C    0.972
    60   1 H    0.999 --    30 C    0.964
 ---------------------------------------------------------------------------

Topologies differ in total number of bonds
Writing topology from bond orders to xtbtopo.mol

molecular dipole:
                 x           y           z       tot (Debye)
 q only:       -0.247      -0.319       0.216
   full:       -0.083      -0.370       0.113       1.006
molecular quadrupole (traceless):
                xx          xy          yy          xz          yz          zz
 q only:      -42.223      20.353      28.822     -25.549     -32.187      13.402
  q+dip:      -39.417       5.787      36.004     -16.307     -22.751       3.413
   full:      -40.276       4.474      37.827     -17.673     -24.107       2.449

           -------------------------------------------------
          |                Geometry Summary                 |
           -------------------------------------------------

      molecular mass/u    :      382.1099696
   center of mass at/Å    :        2.9423824     -35.9400305      21.8382255
  moments of inertia/u·Å² :        0.1220593E+04   0.6814184E+04   0.7131932E+04
rotational constants/cm⁻¹ :        0.1381101E-01   0.2473903E-02   0.2363684E-02

 * 58 selected distances

     #   Z          #   Z                                           value/Å
     1   6 C        2   6 C                                       1.5270794
     2   6 C        3   8 O                                       1.4262002
     2   6 C        4   6 C                                       1.5341710
     5   6 C        6   6 C                                       1.5270519
     5   6 C        7   6 C                                       1.5342632
     5   6 C        8   8 O                                       1.4266624
     3   8 O        9   5 B                                       1.3702313
     8   8 O        9   5 B                                       1.3694305
     9   5 B       10   6 C                                       1.5521584
    10   6 C       11   6 C                                       1.3740452
    11   6 C       12   6 C                                       1.3960865
    12   6 C       13   1 H                                       1.0804996
    12   6 C       14   6 C                                       1.5019895
    14   6 C       15   1 H                                       1.0883691
    16   6 C       17   5 B                                       1.5606970 (max)
    17   5 B       18   8 O                                       1.3685671
    18   8 O       19   6 C                                       1.4268340
    19   6 C       20   6 C                                       1.5269979
    19   6 C       21   6 C                                       1.5340614
    22   6 C       23   6 C                                       1.5339624
    22   6 C       24   6 C                                       1.5270339
    17   5 B       25   8 O                                       1.3659255
    22   6 C       25   8 O                                       1.4276413
    16   6 C       26   6 C                                       1.3331242
    27   6 C       28   1 H                                       1.0902298
    27   6 C       29   6 C                                       1.4960607
    29   6 C       30   6 C                                       1.3601119
    14   6 C       31   6 C                                       1.4974446
    30   6 C       31   6 C                                       1.4015693
    31   6 C       32   1 H                                       1.0805874
     1   6 C       33   1 H                                       1.0872289
     1   6 C       34   1 H                                       1.0866755
     1   6 C       35   1 H                                       1.0851583
     4   6 C       36   1 H                                       1.0876705
     4   6 C       37   1 H                                       1.0871612
     4   6 C       38   1 H                                       1.0858238
     6   6 C       39   1 H                                       1.0866982
     6   6 C       40   1 H                                       1.0850969
     6   6 C       41   1 H                                       1.0871672
     7   6 C       42   1 H                                       1.0858839
     7   6 C       43   1 H                                       1.0876463
     7   6 C       44   1 H                                       1.0871405
    11   6 C       45   1 H                                       1.0838153
    20   6 C       46   1 H                                       1.0872224
    20   6 C       47   1 H                                       1.0866107
    20   6 C       48   1 H                                       1.0851392
    21   6 C       49   1 H                                       1.0876641
    21   6 C       50   1 H                                       1.0871098
    21   6 C       51   1 H                                       1.0857862
    23   6 C       52   1 H                                       1.0858864
    23   6 C       53   1 H                                       1.0874846
    23   6 C       54   1 H                                       1.0869998
    24   6 C       55   1 H                                       1.0866869
    24   6 C       56   1 H                                       1.0850473
    24   6 C       57   1 H                                       1.0871178
    26   6 C       58   1 H                                       1.0815642
    29   6 C       59   1 H                                       1.0804719 (min)
    30   6 C       60   1 H                                       1.0842918

 * 5 distinct bonds (by element types)

   Z      Z             #   av. dist./Å        max./Å        min./Å
   1 H    6 C          32     1.0858730     1.0902298     1.0804719
   5 B    6 C           2     1.5564277     1.5606970     1.5521584
   6 C    6 C          16     1.4753158     1.5342632     1.3331242
   5 B    8 O           4     1.3685386     1.3702313     1.3659255
   6 C    8 O           4     1.4268345     1.4276413     1.4262002


optimized geometry written to: xtbopt.xyz


           -------------------------------------------------
          | TOTAL ENERGY              -82.296926825735 Eh   |
          | GRADIENT NORM               0.000853200505 Eh/α |
          | HOMO-LUMO GAP               2.898324938661 eV   |
           -------------------------------------------------

------------------------------------------------------------------------
 * finished run on 2022/07/09 at 18:33:13.379     
------------------------------------------------------------------------
 total:
 * wall-time:     0 d,  0 h,  0 min,  2.453 sec
 *  cpu-time:     0 d,  0 h,  0 min,  2.451 sec
 * ratio c/w:     0.999 speedup
 SCF:
 * wall-time:     0 d,  0 h,  0 min,  0.068 sec
 *  cpu-time:     0 d,  0 h,  0 min,  0.068 sec
 * ratio c/w:     1.000 speedup
 ANC optimizer:
 * wall-time:     0 d,  0 h,  0 min,  2.373 sec
 *  cpu-time:     0 d,  0 h,  0 min,  2.370 sec
 * ratio c/w:     0.999 speedup

