      -----------------------------------------------------------      
     |                   =====================                   |     
     |                           x T B                           |     
     |                   =====================                   |     
     |                         S. Grimme                         |     
     |          Mulliken Center for Theoretical Chemistry        |     
     |                    University of Bonn                     |     
      -----------------------------------------------------------      

   * xtb version 6.5.0 (homebrew) compiled by 'nhattrup@GPGGRP-SHANNON.CHEME.CMU.EDU' on 

   xtb is free software: you can redistribute it and/or modify it under
   the terms of the GNU Lesser General Public License as published by
   the Free Software Foundation, either version 3 of the License, or
   (at your option) any later version.
   
   xtb is distributed in the hope that it will be useful,
   but WITHOUT ANY WARRANTY; without even the implied warranty of
   MERCHANTABILITY or FITNESS FOR A PARTICULAR PURPOSE.  See the
   GNU Lesser General Public License for more details.
   
   Cite this work as:
   * C. Bannwarth, E. Caldeweyher, S. Ehlert, A. Hansen, P. Pracht,
     J. Seibert, S. Spicher, S. Grimme, WIREs Comput. Mol. Sci., 2020, 11,
     e01493. DOI: 10.1002/wcms.1493
   
   for GFN2-xTB:
   * C. Bannwarth, S. Ehlert and S. Grimme., J. Chem. Theory Comput., 2019,
     15, 1652-1671. DOI: 10.1021/acs.jctc.8b01176
   for GFN1-xTB:
   * S. Grimme, C. Bannwarth, P. Shushkov, J. Chem. Theory Comput., 2017,
     13, 1989-2009. DOI: 10.1021/acs.jctc.7b00118
   for GFN0-xTB:
   * P. Pracht, E. Caldeweyher, S. Ehlert, S. Grimme, ChemRxiv, 2019, preprint.
     DOI: 10.26434/chemrxiv.8326202.v1
   for GFN-FF:
   * S. Spicher and S. Grimme, Angew. Chem. Int. Ed., 2020, 59, 15665-15673.
     DOI: 10.1002/anie.202004239
   
   for ALPB and GBSA implicit solvation:
   * S. Ehlert, M. Stahn, S. Spicher, S. Grimme, J. Chem. Theory Comput.,
     2021, 17, 4250-4261. DOI: 10.1021/acs.jctc.1c00471
   
   for DFT-D4:
   * E. Caldeweyher, C. Bannwarth and S. Grimme, J. Chem. Phys., 2017,
     147, 034112. DOI: 10.1063/1.4993215
   * E. Caldeweyher, S. Ehlert, A. Hansen, H. Neugebauer, S. Spicher,
     C. Bannwarth and S. Grimme, J. Chem. Phys., 2019, 150, 154122.
     DOI: 10.1063/1.5090222
   * E. Caldeweyher, J.-M. Mewes, S. Ehlert and S. Grimme, Phys. Chem. Chem. Phys.
     2020, 22, 8499-8512. DOI: 10.1039/D0CP00502A
   
   for sTDA-xTB:
   * S. Grimme and C. Bannwarth, J. Chem. Phys., 2016, 145, 054103.
     DOI: 10.1063/1.4959605
   
   in the mass-spec context:
   * V. Asgeirsson, C. Bauer and S. Grimme, Chem. Sci., 2017, 8, 4879.
     DOI: 10.1039/c7sc00601b
   * J. Koopman and S. Grimme, ACS Omega 2019, 4, 12, 15120-15133.
     DOI: 10.1021/acsomega.9b02011
   
   for metadynamics refer to:
   * S. Grimme, J. Chem. Theory Comput., 2019, 155, 2847-2862
     DOI: 10.1021/acs.jctc.9b00143
   
   for SPH calculations refer to:
   * S. Spicher and S. Grimme, J. Chem. Theory Comput., 2021, 17, 1701-1714
     DOI: 10.1021/acs.jctc.0c01306
   
   with help from (in alphabetical order)
   P. Atkinson, C. Bannwarth, F. Bohle, G. Brandenburg, E. Caldeweyher
   M. Checinski, S. Dohm, S. Ehlert, S. Ehrlich, I. Gerasimov, C. Hölzer
   A. Katbashev, J. Koopman, C. Lavigne, S. Lehtola, F. März, M. Müller,
   F. Musil, H. Neugebauer, J. Pisarek, C. Plett, P. Pracht, F. Pultar,
   J. Seibert, P. Shushkov, S. Spicher, M. Stahn, M. Steiner, T. Strunk,
   J. Stückrath, T. Rose, and J. Unsleber
   
 * started run on 2022/07/09 at 18:33:27.615     

           -------------------------------------------------
          |                Calculation Setup                |
           -------------------------------------------------

          program call               : /opt/homebrew/bin/xtb bvl_bpin2_scan_1-9_xtb.xyz --chrg 0 --uhf 0 --opt --input xcontrol_bvl_bpin2_scan_1-9_xtb
          coordinate file            : bvl_bpin2_scan_1-9_xtb.xyz
          omp threads                :                     1

   ID    Z sym.   atoms
    1    6 C      1, 2, 4-7, 10-12, 14, 16, 19-24, 26, 27, 29-31
    2    8 O      3, 8, 18, 25
    3    5 B      9, 17
    4    1 H      13, 15, 28, 32-60
constraining bond 12 31 to    1.6111000 Å, actual value:    1.5068186 Å
constraining bond 10 29 to    1.5000000 Å, actual value:    1.6149853 Å

           -------------------------------------------------
          |                 G F N 2 - x T B                 |
           -------------------------------------------------

        Reference                      10.1021/acs.jctc.8b01176
      * Hamiltonian:
        H0-scaling (s, p, d)           1.850000    2.230000    2.230000
        zeta-weighting                 0.500000
      * Dispersion:
        s8                             2.700000
        a1                             0.520000
        a2                             5.000000
        s9                             5.000000
      * Repulsion:
        kExp                           1.500000    1.000000
        rExp                           1.000000
      * Coulomb:
        alpha                          2.000000
        third order                    shell-resolved
        anisotropic                    true
        a3                             3.000000
        a5                             4.000000
        cn-shift                       1.200000
        cn-exp                         4.000000
        max-rad                        5.000000


          ...................................................
          :                      SETUP                      :
          :.................................................:
          :  # basis functions                 144          :
          :  # atomic orbitals                 144          :
          :  # shells                           88          :
          :  # electrons                       150          :
          :  max. iterations                   250          :
          :  Hamiltonian                  GFN2-xTB          :
          :  restarted?                      false          :
          :  GBSA solvation                  false          :
          :  PC potential                    false          :
          :  electronic temp.          300.0000000     K    :
          :  accuracy                    1.0000000          :
          :  -> integral cutoff          0.2500000E+02      :
          :  -> integral neglect         0.1000000E-07      :
          :  -> SCF convergence          0.1000000E-05 Eh   :
          :  -> wf. convergence          0.1000000E-03 e    :
          :  Broyden damping             0.4000000          :
          ...................................................

 iter      E             dE          RMSdq      gap      omega  full diag
   1    -82.9195214 -0.829195E+02  0.460E+00    2.01       0.0  T
   2    -83.3095650 -0.390044E+00  0.285E+00    1.83       1.0  T
   3    -83.3145416 -0.497662E-02  0.142E+00    1.95       1.0  T
   4    -83.2805043  0.340373E-01  0.108E+00    2.14       1.0  T
   5    -83.3537676 -0.732633E-01  0.307E-01    1.90       1.0  T
   6    -83.3591479 -0.538029E-02  0.120E-01    1.92       1.0  T
   7    -83.3592238 -0.758764E-04  0.418E-02    1.92       1.0  T
   8    -83.3592587 -0.349565E-04  0.137E-02    1.92       1.0  T
   9    -83.3592652 -0.646606E-05  0.668E-03    1.92       1.9  T
  10    -83.3592665 -0.131083E-05  0.295E-03    1.92       4.4  T
  11    -83.3592666 -0.774631E-07  0.851E-04    1.92      15.2  T
  12    -83.3592666 -0.329267E-07  0.323E-04    1.92      39.9  T

   *** convergence criteria satisfied after 12 iterations ***

         #    Occupation            Energy/Eh            Energy/eV
      -------------------------------------------------------------
         1        2.0000           -0.6948809             -18.9087
       ...           ...                  ...                  ...
        69        2.0000           -0.4094930             -11.1429
        70        2.0000           -0.4031436             -10.9701
        71        2.0000           -0.4004521             -10.8969
        72        2.0000           -0.3947248             -10.7410
        73        2.0000           -0.3838799             -10.4459
        74        2.0000           -0.3749955             -10.2041
        75        2.0000           -0.3045081              -8.2861 (HOMO)
        76                         -0.2341083              -6.3704 (LUMO)
        77                         -0.2203717              -5.9966
        78                         -0.1513529              -4.1185
        79                         -0.1005092              -2.7350
        80                         -0.0145811              -0.3968
       ...                                ...                  ...
       144                          0.6992270              19.0269
      -------------------------------------------------------------
                  HL-Gap            0.0703999 Eh            1.9157 eV
             Fermi-level           -0.2693082 Eh           -7.3282 eV

 SCC (total)                   0 d,  0 h,  0 min,  0.069 sec
 SCC setup                      ...        0 min,  0.000 sec (  0.353%)
 Dispersion                     ...        0 min,  0.000 sec (  0.604%)
 classical contributions        ...        0 min,  0.000 sec (  0.260%)
 integral evaluation            ...        0 min,  0.006 sec (  8.941%)
 iterations                     ...        0 min,  0.034 sec ( 49.111%)
 molecular gradient             ...        0 min,  0.028 sec ( 40.208%)
 printout                       ...        0 min,  0.000 sec (  0.512%)

         :::::::::::::::::::::::::::::::::::::::::::::::::::::
         ::                     SUMMARY                     ::
         :::::::::::::::::::::::::::::::::::::::::::::::::::::
         :: total energy             -82.113496037608 Eh    ::
         :: gradient norm              1.679099975725 Eh/a0 ::
         :: HOMO-LUMO gap              1.915678552488 eV    ::
         ::.................................................::
         :: SCC energy               -83.359266637115 Eh    ::
         :: -> isotropic ES            0.148643568148 Eh    ::
         :: -> anisotropic ES          0.010637358167 Eh    ::
         :: -> anisotropic XC          0.025170164207 Eh    ::
         :: -> dispersion             -0.061030383386 Eh    ::
         :: repulsion energy           1.073053808573 Eh    ::
         :: add. restraining           0.172098356224 Eh    ::
         :: total charge              -0.000000000000 e     ::
         :::::::::::::::::::::::::::::::::::::::::::::::::::::

      ----------------------------------------------------------- 
     |                   =====================                   |
     |                        A N C O P T                        |
     |                   =====================                   |
     |               Approximate Normal Coordinate               |
     |                Rational Function Optimizer                |
      ----------------------------------------------------------- 

          ...................................................
          :                      SETUP                      :
          :.................................................:
          :   optimization level            normal          :
          :   max. optcycles                   200          :
          :   ANC micro-cycles                  20          :
          :   degrees of freedom               174          :
          :.................................................:
          :   RF solver                   davidson          :
          :   write xtbopt.log                true          :
          :   linear?                        false          :
          :   energy convergence         0.5000000E-05 Eh   :
          :   grad. convergence          0.1000000E-02 Eh/α :
          :   maximium RF displ.         1.0000000          :
          :   Hlow (freq-cutoff)         0.1000000E-01      :
          :   Hmax (freq-cutoff)         5.0000000          :
          :   S6 in model hess.         20.0000000          :
          ...................................................

generating ANC from model Hessian ...
Using Lindh-Hessian (1995)
 Shifting diagonal of input Hessian by   0.16833820157512702     
 Lowest  eigenvalues of input Hessian
    0.010000    0.120299    0.000000    0.000000    0.000000    0.000000
    0.000000    0.000000    0.168468    0.168487    0.168632    0.170030
    0.170232    0.171231    0.171642    0.171726    0.173103    0.173503
 Highest eigenvalues
    1.892842    1.897458    2.108704    2.178649    9.288642    9.562893


........................................................................
.............................. CYCLE    1 ..............................
........................................................................
   1    -83.3592666 -0.833593E+02  0.164E-04    1.92       0.0  T
   2    -83.3592666 -0.708425E-09  0.118E-04    1.92     109.3  T
   3    -83.3592666 -0.388383E-09  0.847E-05    1.92     152.4  T
     SCC iter.                  ...        0 min,  0.008 sec
     gradient                   ...        0 min,  0.028 sec
 * total energy  :   -82.1134960 Eh     change       -0.1573540E-08 Eh
   gradient norm :     1.6791002 Eh/α   predicted     0.0000000E+00 (-100.00%)
   displ. norm   :     0.3099084 α      lambda       -0.5152058E+00
   maximum displ.:     0.2337039 α      in ANC's #174, #173, #123, ...

........................................................................
.............................. CYCLE    2 ..............................
........................................................................
   1    -83.3557229 -0.833557E+02  0.390E-01    2.00       0.0  T
   2    -83.3557553 -0.324345E-04  0.247E-01    2.01       1.0  T
   3    -83.3530423  0.271305E-02  0.217E-01    2.00       1.0  T
   4    -83.3557436 -0.270133E-02  0.621E-02    2.00       1.0  T
   5    -83.3559995 -0.255822E-03  0.121E-02    2.00       1.1  T
   6    -83.3560065 -0.708897E-05  0.431E-03    2.00       3.0  T
   7    -83.3560067 -0.155895E-06  0.141E-03    2.00       9.2  T
   8    -83.3560067 -0.372053E-07  0.394E-04    2.00      32.7  T
   9    -83.3560067 -0.321050E-08  0.144E-04    2.00      89.9  T
     SCC iter.                  ...        0 min,  0.024 sec
     gradient                   ...        0 min,  0.028 sec
 * total energy  :   -82.2355820 Eh     change       -0.1220860E+00 Eh
   gradient norm :     0.8959136 Eh/α   predicted    -0.2823613E+00 ( 131.28%)
   displ. norm   :     0.1088114 α      lambda       -0.9477144E-01
   maximum displ.:     0.0818269 α      in ANC's #174, #173, #154, ...

........................................................................
.............................. CYCLE    3 ..............................
........................................................................
   1    -83.3574702 -0.833575E+02  0.131E-01    1.97       0.0  T
   2    -83.3575132 -0.429599E-04  0.907E-02    1.97       1.0  T
   3    -83.3572699  0.243299E-03  0.688E-02    1.97       1.0  T
   4    -83.3574724 -0.202563E-03  0.360E-02    1.97       1.0  T
   5    -83.3575605 -0.881017E-04  0.607E-03    1.97       2.1  T
   6    -83.3575625 -0.193597E-05  0.175E-03    1.97       7.4  T
   7    -83.3575625 -0.320393E-07  0.752E-04    1.97      17.2  T
   8    -83.3575625 -0.951964E-08  0.151E-04    1.97      85.6  T
     SCC iter.                  ...        0 min,  0.022 sec
     gradient                   ...        0 min,  0.027 sec
 * total energy  :   -82.2837699 Eh     change       -0.4818792E-01 Eh
   gradient norm :     0.0369461 Eh/α   predicted    -0.4794773E-01 (  -0.50%)
   displ. norm   :     0.0319939 α      lambda       -0.7270980E-03
   maximum displ.:     0.0121547 α      in ANC's #42, #109, #154, ...

........................................................................
.............................. CYCLE    4 ..............................
........................................................................
   1    -83.3572703 -0.833573E+02  0.230E-02    1.96       0.0  T
   2    -83.3572773 -0.700354E-05  0.155E-02    1.96       1.0  T
   3    -83.3572759  0.135888E-05  0.111E-02    1.96       1.2  T
   4    -83.3572744  0.151963E-05  0.100E-02    1.96       1.3  T
   5    -83.3572805 -0.609430E-05  0.761E-04    1.96      17.0  T
   6    -83.3572805 -0.279683E-07  0.297E-04    1.96      43.4  T
   7    -83.3572805 -0.402650E-09  0.185E-04    1.96      69.7  T
     SCC iter.                  ...        0 min,  0.018 sec
     gradient                   ...        0 min,  0.027 sec
 * total energy  :   -82.2843169 Eh     change       -0.5469557E-03 Eh
   gradient norm :     0.0228660 Eh/α   predicted    -0.3971297E-03 ( -27.39%)
   displ. norm   :     0.0940442 α      lambda       -0.6946734E-03
   maximum displ.:     0.0779054 α      in ANC's #1, #42, #109, ...

........................................................................
.............................. CYCLE    5 ..............................
........................................................................
   1    -83.3567079 -0.833567E+02  0.608E-02    1.97       0.0  T
   2    -83.3567036  0.435640E-05  0.409E-02    1.97       1.0  T
   3    -83.3566388  0.647700E-04  0.431E-02    1.97       1.0  T
   4    -83.3567256 -0.867684E-04  0.122E-02    1.97       1.1  T
   5    -83.3567356 -0.998001E-05  0.109E-03    1.97      11.9  T
   6    -83.3567356 -0.465194E-07  0.489E-04    1.97      26.4  T
   7    -83.3567356 -0.152717E-08  0.180E-04    1.97      71.7  T
     SCC iter.                  ...        0 min,  0.019 sec
     gradient                   ...        0 min,  0.027 sec
 * total energy  :   -82.2842678 Eh     change        0.4910165E-04 Eh
   gradient norm :     0.0179198 Eh/α   predicted    -0.3499558E-03 (-812.72%)
   displ. norm   :     0.2387489 α      lambda       -0.1897053E-02
   maximum displ.:     0.2170853 α      in ANC's #1, #42, #109, ...

........................................................................
.............................. CYCLE    6 ..............................
........................................................................
   1    -83.3550577 -0.833551E+02  0.151E-01    1.99       0.0  T
   2    -83.3548580  0.199697E-03  0.115E-01    1.98       1.0  T
   3    -83.3547540  0.104046E-03  0.101E-01    1.99       1.0  T
   4    -83.3552125 -0.458561E-03  0.226E-02    1.98       1.0  T
   5    -83.3552435 -0.310072E-04  0.258E-03    1.98       5.0  T
   6    -83.3552437 -0.204168E-06  0.141E-03    1.98       9.2  T
   7    -83.3552438 -0.251177E-07  0.786E-04    1.98      16.4  T
   8    -83.3552438 -0.210233E-07  0.207E-04    1.98      62.4  T
     SCC iter.                  ...        0 min,  0.021 sec
     gradient                   ...        0 min,  0.026 sec
 * total energy  :   -82.2818931 Eh     change        0.2374639E-02 Eh
   gradient norm :     0.0905076 Eh/α   predicted    -0.9987965E-03 (-142.06%)
   displ. norm   :     0.1506151 α      lambda       -0.1022100E-01
   maximum displ.:     0.1193467 α      in ANC's #1, #42, #109, ...

........................................................................
.............................. CYCLE    7 ..............................
........................................................................
   1    -83.3572683 -0.833573E+02  0.103E-01    1.96       0.0  T
   2    -83.3572225  0.457856E-04  0.777E-02    1.97       1.0  T
   3    -83.3571612  0.613213E-04  0.688E-02    1.96       1.0  T
   4    -83.3573610 -0.199808E-03  0.221E-02    1.96       1.0  T
   5    -83.3573891 -0.281680E-04  0.204E-03    1.96       6.3  T
   6    -83.3573893 -0.152963E-06  0.964E-04    1.96      13.4  T
   7    -83.3573893 -0.948398E-08  0.334E-04    1.96      38.6  T
     SCC iter.                  ...        0 min,  0.018 sec
     gradient                   ...        0 min,  0.026 sec
 * total energy  :   -82.2846352 Eh     change       -0.2742053E-02 Eh
   gradient norm :     0.0142790 Eh/α   predicted    -0.2970501E-02 (   8.33%)
   displ. norm   :     0.0198015 α      lambda       -0.1983446E-03
   maximum displ.:     0.0177583 α      in ANC's #1, #42, #37, ...

........................................................................
.............................. CYCLE    8 ..............................
........................................................................
   1    -83.3575614 -0.833576E+02  0.120E-02    1.97       0.0  T
   2    -83.3575607  0.678891E-06  0.797E-03    1.97       1.6  T
   3    -83.3575568  0.397743E-05  0.946E-03    1.97       1.4  T
   4    -83.3575618 -0.499531E-05  0.104E-03    1.97      12.4  T
   5    -83.3575618 -0.701072E-07  0.210E-04    1.97      61.5  T
   6    -83.3575618 -0.163860E-08  0.103E-04    1.97     125.8  T
     SCC iter.                  ...        0 min,  0.015 sec
     gradient                   ...        0 min,  0.026 sec
 * total energy  :   -82.2846760 Eh     change       -0.4082830E-04 Eh
   gradient norm :     0.0030903 Eh/α   predicted    -0.3718948E-04 (  -8.91%)
   displ. norm   :     0.0091294 α      lambda       -0.4488991E-04
   maximum displ.:     0.0048982 α      in ANC's #42, #11, #1, ...

........................................................................
.............................. CYCLE    9 ..............................
........................................................................
   1    -83.3576753 -0.833577E+02  0.458E-03    1.97       0.0  T
   2    -83.3576753 -0.418781E-07  0.277E-03    1.97       4.7  T
   3    -83.3576752  0.121322E-06  0.145E-03    1.97       8.9  T
   4    -83.3576753 -0.107307E-06  0.720E-04    1.97      17.9  T
   5    -83.3576753 -0.299680E-07  0.208E-04    1.97      62.1  T
     SCC iter.                  ...        0 min,  0.013 sec
     gradient                   ...        0 min,  0.026 sec
 * total energy  :   -82.2846871 Eh     change       -0.1105417E-04 Eh
   gradient norm :     0.0021863 Eh/α   predicted    -0.6148223E-05 ( -44.38%)
   displ. norm   :     0.0270505 α      lambda       -0.1332482E-03
   maximum displ.:     0.0148602 α      in ANC's #42, #11, #35, ...

........................................................................
.............................. CYCLE   10 ..............................
........................................................................
   1    -83.3580137 -0.833580E+02  0.127E-02    1.97       0.0  T
   2    -83.3580138 -0.129176E-06  0.755E-03    1.97       1.7  T
   3    -83.3580121  0.166040E-05  0.534E-03    1.97       2.4  T
   4    -83.3580137 -0.159111E-05  0.163E-03    1.97       7.9  T
   5    -83.3580139 -0.179516E-06  0.401E-04    1.97      32.2  T
   6    -83.3580139 -0.751635E-08  0.153E-04    1.97      84.6  T
     SCC iter.                  ...        0 min,  0.015 sec
     gradient                   ...        0 min,  0.026 sec
 * total energy  :   -82.2847040 Eh     change       -0.1696557E-04 Eh
   gradient norm :     0.0027266 Eh/α   predicted    -0.1431015E-04 ( -15.65%)
   displ. norm   :     0.0093294 α      lambda       -0.2540186E-04
   maximum displ.:     0.0040189 α      in ANC's #42, #11, #6, ...

........................................................................
.............................. CYCLE   11 ..............................
........................................................................
   1    -83.3581572 -0.833582E+02  0.387E-03    1.97       0.0  T
   2    -83.3581572 -0.498514E-08  0.232E-03    1.97       5.6  T
   3    -83.3581570  0.218267E-06  0.194E-03    1.97       6.7  T
   4    -83.3581572 -0.217090E-06  0.477E-04    1.97      27.1  T
   5    -83.3581572 -0.145330E-07  0.114E-04    1.97     113.3  T
     SCC iter.                  ...        0 min,  0.013 sec
     gradient                   ...        0 min,  0.026 sec
 * total energy  :   -82.2847073 Eh     change       -0.3308951E-05 Eh
   gradient norm :     0.0013006 Eh/α   predicted    -0.2251137E-05 ( -31.97%)
   displ. norm   :     0.0169651 α      lambda       -0.2795417E-04
   maximum displ.:     0.0073142 α      in ANC's #11, #6, #13, ...

........................................................................
.............................. CYCLE   12 ..............................
........................................................................
   1    -83.3584244 -0.833584E+02  0.575E-03    1.97       0.0  T
   2    -83.3584244 -0.260193E-07  0.351E-03    1.97       3.7  T
   3    -83.3584241  0.333458E-06  0.259E-03    1.97       5.0  T
   4    -83.3584244 -0.325656E-06  0.889E-04    1.97      14.5  T
   5    -83.3584245 -0.466796E-07  0.298E-04    1.97      43.4  T
     SCC iter.                  ...        0 min,  0.013 sec
     gradient                   ...        0 min,  0.026 sec
 * total energy  :   -82.2847110 Eh     change       -0.3621520E-05 Eh
   gradient norm :     0.0019446 Eh/α   predicted    -0.2102189E-05 ( -41.95%)
   displ. norm   :     0.0089464 α      lambda       -0.2041451E-04
   maximum displ.:     0.0043573 α      in ANC's #11, #6, #13, ...

........................................................................
.............................. CYCLE   13 ..............................
........................................................................
   1    -83.3585365 -0.833585E+02  0.264E-03    1.97       0.0  T
   2    -83.3585365  0.732027E-07  0.198E-03    1.97       6.5  T
   3    -83.3585364  0.428276E-07  0.189E-03    1.97       6.8  T
   4    -83.3585366 -0.149719E-06  0.462E-04    1.97      27.9  T
   5    -83.3585366 -0.134842E-07  0.114E-04    1.97     113.0  T
     SCC iter.                  ...        0 min,  0.013 sec
     gradient                   ...        0 min,  0.026 sec
 * total energy  :   -82.2847144 Eh     change       -0.3419003E-05 Eh
   gradient norm :     0.0016260 Eh/α   predicted    -0.1335797E-05 ( -60.93%)
   displ. norm   :     0.0308237 α      lambda       -0.6223984E-04
   maximum displ.:     0.0156464 α      in ANC's #11, #6, #13, ...

........................................................................
.............................. CYCLE   14 ..............................
........................................................................
   1    -83.3588585 -0.833589E+02  0.726E-03    1.97       0.0  T
   2    -83.3588580  0.543106E-06  0.540E-03    1.97       2.4  T
   3    -83.3588574  0.566452E-06  0.544E-03    1.97       2.4  T
   4    -83.3588588 -0.138623E-05  0.604E-04    1.97      21.4  T
   5    -83.3588588 -0.208514E-07  0.279E-04    1.97      46.2  T
   6    -83.3588588 -0.380524E-08  0.939E-05    1.97     137.5  T
     SCC iter.                  ...        0 min,  0.015 sec
     gradient                   ...        0 min,  0.026 sec
 * total energy  :   -82.2847210 Eh     change       -0.6564789E-05 Eh
   gradient norm :     0.0010170 Eh/α   predicted    -0.3607550E-05 ( -45.05%)
   displ. norm   :     0.0147771 α      lambda       -0.2026731E-04
   maximum displ.:     0.0076258 α      in ANC's #6, #11, #13, ...

........................................................................
.............................. CYCLE   15 ..............................
........................................................................
   1    -83.3589751 -0.833590E+02  0.293E-03    1.97       0.0  T
   2    -83.3589751  0.619237E-08  0.184E-03    1.97       7.0  T
   3    -83.3589749  0.224126E-06  0.201E-03    1.97       6.4  T
   4    -83.3589751 -0.234412E-06  0.425E-04    1.97      30.3  T
   5    -83.3589752 -0.106046E-07  0.923E-05    1.97     139.8  T
     SCC iter.                  ...        0 min,  0.013 sec
     gradient                   ...        0 min,  0.026 sec
 * total energy  :   -82.2847234 Eh     change       -0.2477944E-05 Eh
   gradient norm :     0.0009167 Eh/α   predicted    -0.1053988E-05 ( -57.47%)
   displ. norm   :     0.0260859 α      lambda       -0.4067047E-04
   maximum displ.:     0.0146074 α      in ANC's #6, #11, #13, ...

   *** GEOMETRY OPTIMIZATION CONVERGED AFTER 15 ITERATIONS ***

------------------------------------------------------------------------
 total energy gain   :        -0.1712274 Eh     -107.4468 kcal/mol
 total RMSD          :         0.0377662 a0        0.0200 Å
 total power (kW/mol):       -29.9704971 (step) -580.4839 (real)
------------------------------------------------------------------------

 ANCopt (total)                0 d,  0 h,  0 min,  0.774 sec
 optimizer setup                ...        0 min,  0.000 sec (  0.010%)
 model hessian                  ...        0 min,  0.033 sec (  4.242%)
 ANC generation                 ...        0 min,  0.003 sec (  0.347%)
 coordinate transformation      ...        0 min,  0.000 sec (  0.026%)
 single point calculation       ...        0 min,  0.733 sec ( 94.673%)
 optimization log               ...        0 min,  0.003 sec (  0.381%)
 hessian update                 ...        0 min,  0.000 sec (  0.041%)
 rational function              ...        0 min,  0.002 sec (  0.203%)

================
 final structure:
================
60
 xtb: 6.5.0 (homebrew)
C            3.48814245667045      -37.73850324342851       15.88854868516696
C            3.72148256990884      -38.12553020780126       17.34694514265714
O            3.25009781455208      -37.07759425918331       18.19615814379337
C            2.89270159025376      -39.37320994654358       17.67489213768769
C            5.23095046110263      -38.26562518134006       17.76360386289377
C            5.73919907253930      -39.70047876222255       17.87418686618900
C            6.17773194709431      -37.46536807808190       16.86083954309006
O            5.26948938064732      -37.64545711034179       19.05169264248395
B            4.14250578942578      -36.89867823301405       19.21393822575975
C            3.89383178077240      -35.90138451171729       20.41266268596111
C            4.92321950904825      -35.87562262815883       21.41163128412451
C            4.97692334451089      -34.89685328544665       22.41328595196805
H            5.91946592383165      -34.84343508160286       22.95164756197053
C            3.81073053607899      -34.28878778160396       23.12876737690514
H            4.06203841287298      -33.89185246698565       24.10560379393813
C            2.46101737779528      -34.91700591418098       23.14195669285476
B            1.70681194089435      -34.91884142429058       24.50425024894304
O            2.20867211966708      -34.38114346300916       25.65991794181462
C            1.33930534240596      -34.72085633723594       26.73859960098520
C            1.18953792116771      -33.52286696050669       27.67363676470505
C            2.00613842881674      -35.87238676043224       27.50232443541740
C            0.01923593346385      -35.15896138632259       26.00656176881733
C           -0.99761524275151      -34.01765664999353       25.87692162285167
C           -0.67538258977775      -36.37933776169400       26.60654575356566
O            0.46757321989460      -35.46824864229576       24.68832323784688
C            1.89708582756546      -35.48531889157976       22.07172001713662
C            2.43160743656501      -35.60276734374530       20.71439917737426
H            1.75889374976633      -36.09909619284109       20.02688629462866
C            3.29106257740592      -34.56682842352100       20.05669866628035
C            3.82705834859800      -33.40792492713393       20.69383380938994
C            4.34381377740817      -33.47077862157364       21.99749014935431
H            4.93193139753852      -32.60868735363251       22.30000406568699
H            2.41781209760011      -37.68187077897106       15.70643016783203
H            3.91788277426455      -38.48670450162533       15.22823840686999
H            3.91879208248081      -36.76778008740505       15.66529981656066
H            1.84183928255296      -39.14237957897657       17.51589411452285
H            3.02206066077647      -39.64798236768557       18.71866434726619
H            3.17174203649466      -40.20633963375269       17.03700476861120
H            5.63806660542302      -40.20842221074887       16.91896952206551
H            5.19971810665769      -40.25073582672699       18.63794358286540
H            6.78962972008193      -39.68019568269847       18.15310332022386
H            6.23099488110132      -37.89773223663671       15.86634990550676
H            7.16976183877285      -37.47721618346526       17.30622967744427
H            5.85220679855788      -36.43015602001769       16.79611269862781
H            5.84988255804325      -36.35850335621019       21.13665368932889
H            2.14992209891908      -33.31676082161860       28.13976515483194
H            0.46203980320862      -33.74277001703869       28.45040892094909
H            0.88246314485470      -32.63562911290944       27.12959745955712
H            2.98746152929842      -35.54315315487258       27.83643280029937
H            2.14494832599901      -36.72725955019632       26.84527112826818
H            1.41738993055618      -36.16322712498825       28.36714130417784
H           -1.41776910299010      -33.75443977251474       26.84302333190049
H           -1.79918918790871      -34.34427824653061       25.21845001370274
H           -0.52922394866254      -33.14581786261579       25.42730559007735
H           -0.94372740539234      -36.18795329816930       27.64199464102182
H           -0.04102080890197      -37.25795400953990       26.55150238283911
H           -1.58050591092997      -36.58189895471819       26.03946887795964
H            0.91599429093066      -35.92225696330168       22.20238349591936
H            3.07323548840750      -34.42575487252083       19.00046091748557
H            4.21598415407067      -32.63478994208333       20.04517581104284

 Bond Distances (Angstroems)
 ---------------------------
C1-C2=1.5268         C1-H33=1.0872        C1-H34=1.0865        C1-H35=1.0852        C2-C1=1.5268         C2-O3=1.4288         
C2-C4=1.5333         C2-C5=1.5722         O3-C2=1.4288         O3-B9=1.3654         C4-C2=1.5333         C4-H36=1.0876        
C4-H37=1.0871        C4-H38=1.0858        C5-C2=1.5722         C5-C6=1.5262         C5-C7=1.5336         C5-O8=1.4301         
C6-C5=1.5262         C6-H39=1.0866        C6-H40=1.0850        C6-H41=1.0870        C7-C5=1.5336         C7-H42=1.0857        
C7-H43=1.0875        C7-H44=1.0871        O8-C5=1.4301         O8-B9=1.3617         B9-O3=1.3654         B9-O8=1.3617         
B9-C10=1.5790        C10-B9=1.5790        C10-C11=1.4347       C10-C27=1.5226       C10-C29=1.5070       C11-C10=1.4347       
C11-C12=1.4015       C11-H45=1.0805       C12-C11=1.4015       C12-H13=1.0868       C12-C14=1.4972       C12-C31=1.6147       
H13-C12=1.0868       C14-C12=1.4972       C14-H15=1.0839       C14-C16=1.4888       C14-C31=1.4944       H15-C14=1.0839       
C16-C14=1.4888       C16-B17=1.5571       C16-C26=1.3366       B17-C16=1.5571       B17-O18=1.3699       B17-O25=1.3680       
O18-B17=1.3699       O18-C19=1.4264       C19-O18=1.4264       C19-C20=1.5271       C19-C21=1.5343       C19-C22=1.5718       
C20-C19=1.5271       C20-H46=1.0872       C20-H47=1.0867       C20-H48=1.0851       C21-C19=1.5343       C21-H49=1.0877       
C21-H50=1.0871       C21-H51=1.0859       C22-C19=1.5718       C22-C23=1.5341       C22-C24=1.5270       C22-O25=1.4263       
C23-C22=1.5341       C23-H52=1.0859       C23-H53=1.0876       C23-H54=1.0870       C24-C22=1.5270       C24-H55=1.0866       
C24-H56=1.0851       C24-H57=1.0871       O25-B17=1.3680       O25-C22=1.4263       C26-C16=1.3366       C26-C27=1.4635       
C26-H58=1.0819       C27-C10=1.5226       C27-C26=1.4635       C27-H28=1.0824       C27-C29=1.4981       H28-C27=1.0824       
C29-C10=1.5070       C29-C27=1.4981       C29-C30=1.4270       C29-H59=1.0877       C30-C29=1.4270       C30-C31=1.4037       
C30-H60=1.0816       C31-C12=1.6147       C31-C14=1.4944       C31-C30=1.4037       C31-H32=1.0866       H32-C31=1.0866       
H33-C1=1.0872        H34-C1=1.0865        H35-C1=1.0852        H36-C4=1.0876        H37-C4=1.0871        H38-C4=1.0858        
H39-C6=1.0866        H40-C6=1.0850        H41-C6=1.0870        H42-C7=1.0857        H43-C7=1.0875        H44-C7=1.0871        
H45-C11=1.0805       H46-C20=1.0872       H47-C20=1.0867       H48-C20=1.0851       H49-C21=1.0877       H50-C21=1.0871       
H51-C21=1.0859       H52-C23=1.0859       H53-C23=1.0876       H54-C23=1.0870       H55-C24=1.0866       H56-C24=1.0851       
H57-C24=1.0871       H58-C26=1.0819       H59-C29=1.0877       H60-C30=1.0816       
 C  H  Rav=1.0859 sigma=0.0019  Rmin=1.0805  Rmax=1.0877    32
 C  B  Rav=1.5681 sigma=0.0110  Rmin=1.5571  Rmax=1.5790     2
 C  C  Rav=1.4990 sigma=0.0620  Rmin=1.3366  Rmax=1.6147    23
 O  B  Rav=1.3662 sigma=0.0031  Rmin=1.3617  Rmax=1.3699     4
 O  C  Rav=1.4279 sigma=0.0016  Rmin=1.4263  Rmax=1.4301     4

 selected bond angles (degree)
 --------------------
H33-C1-C2=108.88               H34-C1-C2=110.21               H34-C1-H33=108.87              H35-C1-C2=111.26               
H35-C1-H33=108.04              H35-C1-H34=109.51              O3-C2-C1=109.35                C4-C2-C1=109.14                
C4-C2-O3=106.94                C5-C2-C1=114.99                C5-C2-O3=102.98                C5-C2-C4=112.94                
B9-O3-C2=108.88                H36-C4-C2=108.56               H37-C4-C2=110.29               H37-C4-H36=108.00              
H38-C4-C2=111.09               H38-C4-H36=108.98              H38-C4-H37=109.85              C6-C5-C2=115.01                
C7-C5-C2=112.97                C7-C5-C6=109.13                O8-C5-C2=103.06                O8-C5-C6=109.48                
O8-C5-C7=106.70                H39-C6-C5=110.17               H40-C6-C5=111.24               H40-C6-H39=109.60              
H41-C6-C5=108.84               H41-C6-H39=108.92              H41-C6-H40=108.02              H42-C7-C5=111.20               
H43-C7-C5=108.45               H43-C7-H42=109.03              H44-C7-C5=110.31               H44-C7-H42=109.84              
H44-C7-H43=107.93              B9-O8-C5=108.83                O8-B9-O3=112.35                C10-B9-O3=123.07               
C10-B9-O8=124.55               C11-C10-B9=115.27              C27-C10-B9=115.19              C27-C10-C11=123.20             
C29-C10-B9=116.29              C29-C10-C11=115.82             C29-C10-C27= 59.27             

 selected dihedral angles (degree)
 ---------------------------------
O3-C2-C1-H33=294.53           O3-C2-C1-H34=175.18           O3-C2-C1-H35= 53.50           C4-C2-C1-H33= 51.20           
C4-C2-C1-H34=291.85           C4-C2-C1-H35=170.17           C5-C2-C1-H33=179.30           C5-C2-C1-H34= 59.94           
C5-C2-C1-H35=298.26           B9-O3-C2-C1=221.22            B9-O3-C2-C4=103.17            B9-O3-C2-C5=343.94            
H36-C4-C2-C1=299.83           H36-C4-C2-O3= 58.02           H36-C4-C2-C5=170.59           H37-C4-C2-C1=181.69           
H37-C4-C2-O3=299.88           H37-C4-C2-C5= 52.45           H38-C4-C2-C1= 59.65           H38-C4-C2-O3=177.84           
H38-C4-C2-C5=290.41           C6-C5-C2-C1=257.35            C6-C5-C2-O3=138.50            C6-C5-C2-C4= 23.52            
C7-C5-C2-C1= 23.54            C7-C5-C2-O3=264.68            C7-C5-C2-C4=149.71            O8-C5-C2-C1=138.28            
O8-C5-C2-O3= 19.43            O8-C5-C2-C4=264.45            H39-C6-C5-C2= 59.92           H39-C6-C5-C7=291.78           
H39-C6-C5-O8=175.35           H40-C6-C5-C2=298.17           H40-C6-C5-C7=170.03           H40-C6-C5-O8= 53.60           
H41-C6-C5-C2=179.27           H41-C6-C5-C7= 51.14           H41-C6-C5-O8=294.70           H42-C7-C5-C2=290.55           
H42-C7-C5-C6= 59.82           H42-C7-C5-O8=178.01           H43-C7-C5-C2=170.68           H43-C7-C5-C6=299.94           
H43-C7-C5-O8= 58.14           H44-C7-C5-C2= 52.67           H44-C7-C5-C6=181.94           H44-C7-C5-O8=300.13           
B9-O8-C5-C2=343.69            B9-O8-C5-C6=220.85            B9-O8-C5-C7=102.89            O8-B9-O3-C2=  6.72            
C10-B9-O3-C2=185.06           O3-B9-O8-C5=  7.13            C10-B9-O8-C5=188.82           C11-C10-B9-O3=178.16          
C11-C10-B9-O8=356.29          C27-C10-B9-O3= 25.14          C27-C10-B9-O8=203.27          C29-C10-B9-O3=318.56          
C29-C10-B9-O8=136.69          
           -------------------------------------------------
          |                Final Singlepoint                |
           -------------------------------------------------

          ...................................................
          :                      SETUP                      :
          :.................................................:
          :  # basis functions                 144          :
          :  # atomic orbitals                 144          :
          :  # shells                           88          :
          :  # electrons                       150          :
          :  max. iterations                   250          :
          :  Hamiltonian                  GFN2-xTB          :
          :  restarted?                      false          :
          :  GBSA solvation                  false          :
          :  PC potential                    false          :
          :  electronic temp.          300.0000000     K    :
          :  accuracy                    1.0000000          :
          :  -> integral cutoff          0.2500000E+02      :
          :  -> integral neglect         0.1000000E-07      :
          :  -> SCF convergence          0.1000000E-05 Eh   :
          :  -> wf. convergence          0.1000000E-03 e    :
          :  Broyden damping             0.4000000          :
          ...................................................

 iter      E             dE          RMSdq      gap      omega  full diag
   1    -83.3589752 -0.833590E+02  0.345E-05    1.97       0.0  T
   2    -83.3589752  0.665068E-11  0.263E-05    1.97     491.2  T
   3    -83.3589752  0.314060E-11  0.238E-05    1.97     543.4  T

   *** convergence criteria satisfied after 3 iterations ***

         #    Occupation            Energy/Eh            Energy/eV
      -------------------------------------------------------------
         1        2.0000           -0.6952878             -18.9197
       ...           ...                  ...                  ...
        69        2.0000           -0.4094352             -11.1413
        70        2.0000           -0.4034451             -10.9783
        71        2.0000           -0.3994793             -10.8704
        72        2.0000           -0.3941965             -10.7266
        73        2.0000           -0.3839300             -10.4473
        74        2.0000           -0.3742229             -10.1831
        75        2.0000           -0.3046312              -8.2894 (HOMO)
        76                         -0.2323175              -6.3217 (LUMO)
        77                         -0.2203852              -5.9970
        78                         -0.1507982              -4.1034
        79                         -0.1004074              -2.7322
        80                         -0.0249839              -0.6798
       ...                                ...                  ...
       144                          0.6980656              18.9953
      -------------------------------------------------------------
                  HL-Gap            0.0723137 Eh            1.9678 eV
             Fermi-level           -0.2684744 Eh           -7.3056 eV

 SCC (total)                   0 d,  0 h,  0 min,  0.040 sec
 SCC setup                      ...        0 min,  0.000 sec (  0.556%)
 Dispersion                     ...        0 min,  0.000 sec (  0.893%)
 classical contributions        ...        0 min,  0.000 sec (  0.415%)
 integral evaluation            ...        0 min,  0.006 sec ( 13.991%)
 iterations                     ...        0 min,  0.008 sec ( 19.261%)
 molecular gradient             ...        0 min,  0.026 sec ( 64.142%)
 printout                       ...        0 min,  0.000 sec (  0.729%)

         :::::::::::::::::::::::::::::::::::::::::::::::::::::
         ::                     SUMMARY                     ::
         :::::::::::::::::::::::::::::::::::::::::::::::::::::
         :: total energy             -82.284723430291 Eh    ::
         :: gradient norm              0.000917441747 Eh/a0 ::
         :: HOMO-LUMO gap              1.967755719792 eV    ::
         ::.................................................::
         :: SCC energy               -83.358975152533 Eh    ::
         :: -> isotropic ES            0.148829573858 Eh    ::
         :: -> anisotropic ES          0.010562227896 Eh    ::
         :: -> anisotropic XC          0.025207777304 Eh    ::
         :: -> dispersion             -0.061096668706 Eh    ::
         :: repulsion energy           1.073189141432 Eh    ::
         :: add. restraining           0.000445963257 Eh    ::
         :: total charge              -0.000000000000 e     ::
         :::::::::::::::::::::::::::::::::::::::::::::::::::::

           -------------------------------------------------
          |                Property Printout                |
           -------------------------------------------------

    * Orbital Energies and Occupations

         #    Occupation            Energy/Eh            Energy/eV
      -------------------------------------------------------------
         1        2.0000           -0.6952878             -18.9197
       ...           ...                  ...                  ...
        63        2.0000           -0.4360756             -11.8662
        64        2.0000           -0.4305081             -11.7147
        65        2.0000           -0.4287892             -11.6679
        66        2.0000           -0.4249644             -11.5639
        67        2.0000           -0.4175553             -11.3623
        68        2.0000           -0.4133199             -11.2470
        69        2.0000           -0.4094352             -11.1413
        70        2.0000           -0.4034451             -10.9783
        71        2.0000           -0.3994793             -10.8704
        72        2.0000           -0.3941965             -10.7266
        73        2.0000           -0.3839300             -10.4473
        74        2.0000           -0.3742229             -10.1831
        75        2.0000           -0.3046312              -8.2894 (HOMO)
        76                         -0.2323175              -6.3217 (LUMO)
        77                         -0.2203852              -5.9970
        78                         -0.1507982              -4.1034
        79                         -0.1004074              -2.7322
        80                         -0.0249839              -0.6798
        81                         -0.0017051              -0.0464
        82                          0.0130323               0.3546
        83                          0.0211524               0.5756
        84                          0.0259574               0.7063
        85                          0.0317721               0.8646
        86                          0.0522818               1.4227
       ...                                ...                  ...
       144                          0.6980656              18.9953
      -------------------------------------------------------------
                  HL-Gap            0.0723137 Eh            1.9678 eV
             Fermi-level           -0.2684744 Eh           -7.3056 eV

     #   Z          covCN         q      C6AA      α(0)
     1   6 C        3.755    -0.118    22.809     6.810
     2   6 C        3.859     0.129    18.448     6.108
     3   8 O        1.638    -0.374    20.362     6.091
     4   6 C        3.755    -0.117    22.795     6.808
     5   6 C        3.861     0.129    18.455     6.109
     6   6 C        3.755    -0.118    22.825     6.812
     7   6 C        3.755    -0.117    22.790     6.807
     8   8 O        1.638    -0.368    20.251     6.074
     9   5 B        2.659     0.442    15.451     6.618
    10   6 C        3.839    -0.045    21.352     6.574
    11   6 C        2.896    -0.076    29.901     8.966
    12   6 C        3.850     0.002    20.512     6.442
    13   1 H        0.925     0.028     2.611     2.527
    14   6 C        3.865    -0.027    21.005     6.517
    15   1 H        0.925     0.042     2.422     2.434
    16   6 C        2.863    -0.088    30.194     9.007
    17   5 B        2.663     0.431    15.562     6.640
    18   8 O        1.638    -0.375    20.371     6.092
    19   6 C        3.859     0.129    18.451     6.109
    20   6 C        3.755    -0.117    22.794     6.808
    21   6 C        3.755    -0.116    22.773     6.804
    22   6 C        3.860     0.129    18.452     6.109
    23   6 C        3.755    -0.116    22.781     6.806
    24   6 C        3.755    -0.117    22.800     6.808
    25   8 O        1.638    -0.373    20.337     6.087
    26   6 C        2.896    -0.026    28.649     8.776
    27   6 C        3.861    -0.029    21.051     6.525
    28   1 H        0.925     0.038     2.469     2.457
    29   6 C        3.870     0.007    20.411     6.424
    30   6 C        2.892    -0.082    30.039     8.986
    31   6 C        3.852     0.003    20.497     6.439
    32   1 H        0.925     0.028     2.613     2.528
    33   1 H        0.925     0.056     2.248     2.345
    34   1 H        0.925     0.041     2.433     2.439
    35   1 H        0.925     0.052     2.292     2.367
    36   1 H        0.925     0.054     2.275     2.359
    37   1 H        0.925     0.045     2.384     2.415
    38   1 H        0.925     0.044     2.396     2.421
    39   1 H        0.925     0.042     2.426     2.435
    40   1 H        0.925     0.054     2.275     2.359
    41   1 H        0.925     0.056     2.243     2.342
    42   1 H        0.925     0.044     2.390     2.418
    43   1 H        0.925     0.054     2.270     2.356
    44   1 H        0.925     0.044     2.399     2.422
    45   1 H        0.926     0.027     2.630     2.536
    46   1 H        0.925     0.053     2.277     2.360
    47   1 H        0.925     0.039     2.462     2.454
    48   1 H        0.925     0.052     2.298     2.370
    49   1 H        0.925     0.051     2.303     2.373
    50   1 H        0.925     0.044     2.402     2.424
    51   1 H        0.925     0.042     2.427     2.436
    52   1 H        0.925     0.042     2.423     2.434
    53   1 H        0.925     0.052     2.296     2.370
    54   1 H        0.925     0.044     2.398     2.422
    55   1 H        0.925     0.039     2.460     2.453
    56   1 H        0.925     0.052     2.298     2.371
    57   1 H        0.925     0.054     2.272     2.357
    58   1 H        0.925     0.038     2.477     2.461
    59   1 H        0.925     0.031     2.570     2.507
    60   1 H        0.925     0.014     2.819     2.626

 Mol. C6AA /au·bohr⁶  :      32266.277913
 Mol. C8AA /au·bohr⁸  :     745476.146166
 Mol. α(0) /au        :        268.732963


Wiberg/Mayer (AO) data.
largest (>0.10) Wiberg bond orders for each atom

 ---------------------------------------------------------------------------
     #   Z sym  total        # sym  WBO       # sym  WBO       # sym  WBO
 ---------------------------------------------------------------------------
     1   6 C    3.994 --     2 C    0.997    34 H    0.984    33 H    0.982
                            35 H    0.982
     2   6 C    3.941 --     1 C    0.997     4 C    0.992     3 O    0.949
                             5 C    0.937
     3   8 O    2.234 --     9 B    1.137     2 C    0.949
     4   6 C    3.994 --     2 C    0.992    38 H    0.984    37 H    0.984
                            36 H    0.983
     5   6 C    3.940 --     6 C    0.997     7 C    0.991     8 O    0.947
                             2 C    0.937
     6   6 C    3.994 --     5 C    0.997    39 H    0.984    41 H    0.982
                            40 H    0.982
     7   6 C    3.995 --     5 C    0.991    42 H    0.984    44 H    0.984
                            43 H    0.982
     8   8 O    2.243 --     9 B    1.148     5 C    0.947
     9   5 B    3.373 --     8 O    1.148     3 O    1.137    10 C    0.975
    10   6 C    3.939 --    11 C    1.216     9 B    0.975    27 C    0.844
                            29 C    0.747
    11   6 C    3.970 --    12 C    1.352    10 C    1.216    45 H    0.967
                            30 C    0.298
    12   6 C    3.958 --    11 C    1.352    13 H    0.970    14 C    0.904
                            31 C    0.626
    13   1 H    0.999 --    12 C    0.970
    14   6 C    3.942 --    16 C    1.014    15 H    0.968    31 C    0.913
                            12 C    0.904
    15   1 H    0.998 --    14 C    0.968
    16   6 C    3.977 --    26 C    1.802    14 C    1.014    17 B    1.006
    17   5 B    3.377 --    25 O    1.125    18 O    1.121    16 C    1.006
    18   8 O    2.227 --    17 B    1.121    19 C    0.954
    19   6 C    3.944 --    20 C    0.997    21 C    0.990    18 O    0.954
                            22 C    0.936
    20   6 C    3.994 --    19 C    0.997    47 H    0.985    46 H    0.983
                            48 H    0.982
    21   6 C    3.994 --    19 C    0.990    51 H    0.985    50 H    0.984
                            49 H    0.983
    22   6 C    3.943 --    24 C    0.996    23 C    0.990    25 O    0.954
                            19 C    0.936
    23   6 C    3.995 --    22 C    0.990    52 H    0.985    54 H    0.984
                            53 H    0.983
    24   6 C    3.994 --    22 C    0.996    55 H    0.985    57 H    0.983
                            56 H    0.982
    25   8 O    2.230 --    17 B    1.125    22 C    0.954
    26   6 C    3.989 --    16 C    1.802    27 C    1.064    58 H    0.964
    27   6 C    3.926 --    26 C    1.064    28 H    0.969    29 C    0.891
                            10 C    0.844
    28   1 H    0.998 --    27 C    0.969
    29   6 C    3.956 --    30 C    1.226    59 H    0.967    27 C    0.891
                            10 C    0.747
    30   6 C    3.957 --    31 C    1.338    29 C    1.226    60 H    0.969
                            11 C    0.298
    31   6 C    3.956 --    30 C    1.338    32 H    0.971    14 C    0.913
                            12 C    0.626
    32   1 H    0.999 --    31 C    0.971
    33   1 H    0.997 --     1 C    0.982
    34   1 H    0.998 --     1 C    0.984
    35   1 H    0.997 --     1 C    0.982
    36   1 H    0.997 --     4 C    0.983
    37   1 H    0.998 --     4 C    0.984
    38   1 H    0.998 --     4 C    0.984
    39   1 H    0.998 --     6 C    0.984
    40   1 H    0.997 --     6 C    0.982
    41   1 H    0.997 --     6 C    0.982
    42   1 H    0.998 --     7 C    0.984
    43   1 H    0.997 --     7 C    0.982
    44   1 H    0.998 --     7 C    0.984
    45   1 H    0.999 --    11 C    0.967
    46   1 H    0.997 --    20 C    0.983
    47   1 H    0.998 --    20 C    0.985
    48   1 H    0.997 --    20 C    0.982
    49   1 H    0.997 --    21 C    0.983
    50   1 H    0.998 --    21 C    0.984
    51   1 H    0.998 --    21 C    0.985
    52   1 H    0.998 --    23 C    0.985
    53   1 H    0.997 --    23 C    0.983
    54   1 H    0.998 --    23 C    0.984
    55   1 H    0.998 --    24 C    0.985
    56   1 H    0.997 --    24 C    0.982
    57   1 H    0.997 --    24 C    0.983
    58   1 H    0.998 --    26 C    0.964
    59   1 H    0.998 --    29 C    0.967
    60   1 H    0.999 --    30 C    0.969
 ---------------------------------------------------------------------------

Topologies differ in total number of bonds
Writing topology from bond orders to xtbtopo.mol

molecular dipole:
                 x           y           z       tot (Debye)
 q only:       -0.134      -0.613      -0.191
   full:       -0.012      -0.665      -0.248       1.805
molecular quadrupole (traceless):
                xx          xy          yy          xz          yz          zz
 q only:      -44.736       5.310      84.185     -22.757      -6.917     -39.448
  q+dip:      -44.345      -4.804      89.484     -15.868      -2.345     -45.139
   full:      -45.087      -5.886      91.092     -17.002      -3.539     -46.005

           -------------------------------------------------
          |                Geometry Summary                 |
           -------------------------------------------------

      molecular mass/u    :      382.1099696
   center of mass at/Å    :        2.9448803     -35.9380495      21.8338072
  moments of inertia/u·Å² :        0.1169493E+04   0.6846425E+04   0.7176838E+04
rotational constants/cm⁻¹ :        0.1441448E-01   0.2462253E-02   0.2348894E-02

 * 61 selected distances

     #   Z          #   Z                                           value/Å
     1   6 C        2   6 C                                       1.5268131
     2   6 C        3   8 O                                       1.4288234
     2   6 C        4   6 C                                       1.5333402
     5   6 C        6   6 C                                       1.5262210
     5   6 C        7   6 C                                       1.5335548
     5   6 C        8   8 O                                       1.4301282
     3   8 O        9   5 B                                       1.3653862
     8   8 O        9   5 B                                       1.3616515
     9   5 B       10   6 C                                       1.5790422 (max)
    10   6 C       11   6 C                                       1.4346572
    11   6 C       12   6 C                                       1.4014942
    12   6 C       13   1 H                                       1.0867720
    12   6 C       14   6 C                                       1.4972186
    14   6 C       15   1 H                                       1.0839386
    16   6 C       17   5 B                                       1.5571363
    17   5 B       18   8 O                                       1.3698726
    18   8 O       19   6 C                                       1.4264494
    19   6 C       20   6 C                                       1.5270572
    19   6 C       21   6 C                                       1.5342636
    22   6 C       23   6 C                                       1.5340697
    22   6 C       24   6 C                                       1.5270215
    17   5 B       25   8 O                                       1.3680074
    22   6 C       25   8 O                                       1.4263303
    16   6 C       26   6 C                                       1.3365647
    10   6 C       27   6 C                                       1.5226022
    26   6 C       27   6 C                                       1.4634985
    27   6 C       28   1 H                                       1.0823864
    10   6 C       29   6 C                                       1.5070108
    27   6 C       29   6 C                                       1.4981332
    29   6 C       30   6 C                                       1.4269865
    14   6 C       31   6 C                                       1.4943578
    30   6 C       31   6 C                                       1.4037475
    31   6 C       32   1 H                                       1.0865535
     1   6 C       33   1 H                                       1.0871898
     1   6 C       34   1 H                                       1.0865044
     1   6 C       35   1 H                                       1.0851741
     4   6 C       36   1 H                                       1.0876005
     4   6 C       37   1 H                                       1.0870576
     4   6 C       38   1 H                                       1.0857574
     6   6 C       39   1 H                                       1.0865886
     6   6 C       40   1 H                                       1.0849641
     6   6 C       41   1 H                                       1.0870191
     7   6 C       42   1 H                                       1.0857189
     7   6 C       43   1 H                                       1.0874908
     7   6 C       44   1 H                                       1.0871156
    11   6 C       45   1 H                                       1.0805050 (min)
    20   6 C       46   1 H                                       1.0872412
    20   6 C       47   1 H                                       1.0867318
    20   6 C       48   1 H                                       1.0851105
    21   6 C       49   1 H                                       1.0876665
    21   6 C       50   1 H                                       1.0871039
    21   6 C       51   1 H                                       1.0858735
    23   6 C       52   1 H                                       1.0858937
    23   6 C       53   1 H                                       1.0875604
    23   6 C       54   1 H                                       1.0870364
    24   6 C       55   1 H                                       1.0866423
    24   6 C       56   1 H                                       1.0850859
    24   6 C       57   1 H                                       1.0871319
    26   6 C       58   1 H                                       1.0819097
    29   6 C       59   1 H                                       1.0876529
    30   6 C       60   1 H                                       1.0815537

 * 5 distinct bonds (by element types)

   Z      Z             #   av. dist./Å        max./Å        min./Å
   1 H    6 C          32     1.0858916     1.0876665     1.0805050
   5 B    6 C           2     1.5680892     1.5790422     1.5571363
   6 C    6 C          19     1.4857164     1.5342636     1.3365647
   5 B    8 O           4     1.3662294     1.3698726     1.3616515
   6 C    8 O           4     1.4279328     1.4301282     1.4263303


optimized geometry written to: xtbopt.xyz


           -------------------------------------------------
          | TOTAL ENERGY              -82.284723430291 Eh   |
          | GRADIENT NORM               0.000917441747 Eh/α |
          | HOMO-LUMO GAP               1.967755719792 eV   |
           -------------------------------------------------

------------------------------------------------------------------------
 * finished run on 2022/07/09 at 18:33:28.511     
------------------------------------------------------------------------
 total:
 * wall-time:     0 d,  0 h,  0 min,  0.896 sec
 *  cpu-time:     0 d,  0 h,  0 min,  0.896 sec
 * ratio c/w:     1.000 speedup
 SCF:
 * wall-time:     0 d,  0 h,  0 min,  0.069 sec
 *  cpu-time:     0 d,  0 h,  0 min,  0.069 sec
 * ratio c/w:     0.999 speedup
 ANC optimizer:
 * wall-time:     0 d,  0 h,  0 min,  0.816 sec
 *  cpu-time:     0 d,  0 h,  0 min,  0.816 sec
 * ratio c/w:     1.000 speedup

