      -----------------------------------------------------------      
     |                   =====================                   |     
     |                           x T B                           |     
     |                   =====================                   |     
     |                         S. Grimme                         |     
     |          Mulliken Center for Theoretical Chemistry        |     
     |                    University of Bonn                     |     
      -----------------------------------------------------------      

   * xtb version 6.5.0 (homebrew) compiled by 'nhattrup@GPGGRP-SHANNON.CHEME.CMU.EDU' on 

   xtb is free software: you can redistribute it and/or modify it under
   the terms of the GNU Lesser General Public License as published by
   the Free Software Foundation, either version 3 of the License, or
   (at your option) any later version.
   
   xtb is distributed in the hope that it will be useful,
   but WITHOUT ANY WARRANTY; without even the implied warranty of
   MERCHANTABILITY or FITNESS FOR A PARTICULAR PURPOSE.  See the
   GNU Lesser General Public License for more details.
   
   Cite this work as:
   * C. Bannwarth, E. Caldeweyher, S. Ehlert, A. Hansen, P. Pracht,
     J. Seibert, S. Spicher, S. Grimme, WIREs Comput. Mol. Sci., 2020, 11,
     e01493. DOI: 10.1002/wcms.1493
   
   for GFN2-xTB:
   * C. Bannwarth, S. Ehlert and S. Grimme., J. Chem. Theory Comput., 2019,
     15, 1652-1671. DOI: 10.1021/acs.jctc.8b01176
   for GFN1-xTB:
   * S. Grimme, C. Bannwarth, P. Shushkov, J. Chem. Theory Comput., 2017,
     13, 1989-2009. DOI: 10.1021/acs.jctc.7b00118
   for GFN0-xTB:
   * P. Pracht, E. Caldeweyher, S. Ehlert, S. Grimme, ChemRxiv, 2019, preprint.
     DOI: 10.26434/chemrxiv.8326202.v1
   for GFN-FF:
   * S. Spicher and S. Grimme, Angew. Chem. Int. Ed., 2020, 59, 15665-15673.
     DOI: 10.1002/anie.202004239
   
   for ALPB and GBSA implicit solvation:
   * S. Ehlert, M. Stahn, S. Spicher, S. Grimme, J. Chem. Theory Comput.,
     2021, 17, 4250-4261. DOI: 10.1021/acs.jctc.1c00471
   
   for DFT-D4:
   * E. Caldeweyher, C. Bannwarth and S. Grimme, J. Chem. Phys., 2017,
     147, 034112. DOI: 10.1063/1.4993215
   * E. Caldeweyher, S. Ehlert, A. Hansen, H. Neugebauer, S. Spicher,
     C. Bannwarth and S. Grimme, J. Chem. Phys., 2019, 150, 154122.
     DOI: 10.1063/1.5090222
   * E. Caldeweyher, J.-M. Mewes, S. Ehlert and S. Grimme, Phys. Chem. Chem. Phys.
     2020, 22, 8499-8512. DOI: 10.1039/D0CP00502A
   
   for sTDA-xTB:
   * S. Grimme and C. Bannwarth, J. Chem. Phys., 2016, 145, 054103.
     DOI: 10.1063/1.4959605
   
   in the mass-spec context:
   * V. Asgeirsson, C. Bauer and S. Grimme, Chem. Sci., 2017, 8, 4879.
     DOI: 10.1039/c7sc00601b
   * J. Koopman and S. Grimme, ACS Omega 2019, 4, 12, 15120-15133.
     DOI: 10.1021/acsomega.9b02011
   
   for metadynamics refer to:
   * S. Grimme, J. Chem. Theory Comput., 2019, 155, 2847-2862
     DOI: 10.1021/acs.jctc.9b00143
   
   for SPH calculations refer to:
   * S. Spicher and S. Grimme, J. Chem. Theory Comput., 2021, 17, 1701-1714
     DOI: 10.1021/acs.jctc.0c01306
   
   with help from (in alphabetical order)
   P. Atkinson, C. Bannwarth, F. Bohle, G. Brandenburg, E. Caldeweyher
   M. Checinski, S. Dohm, S. Ehlert, S. Ehrlich, I. Gerasimov, C. Hölzer
   A. Katbashev, J. Koopman, C. Lavigne, S. Lehtola, F. März, M. Müller,
   F. Musil, H. Neugebauer, J. Pisarek, C. Plett, P. Pracht, F. Pultar,
   J. Seibert, P. Shushkov, S. Spicher, M. Stahn, M. Steiner, T. Strunk,
   J. Stückrath, T. Rose, and J. Unsleber
   
 * started run on 2022/07/09 at 18:33:02.225     

           -------------------------------------------------
          |                Calculation Setup                |
           -------------------------------------------------

          program call               : /opt/homebrew/bin/xtb bvl_bpin2_scan_2-3_xtb.xyz --chrg 0 --uhf 0 --opt --input xcontrol_bvl_bpin2_scan_2-3_xtb
          coordinate file            : bvl_bpin2_scan_2-3_xtb.xyz
          omp threads                :                     1

   ID    Z sym.   atoms
    1    6 C      1, 2, 4-7, 10-12, 14, 16, 19-24, 26, 27, 29-31
    2    8 O      3, 8, 18, 25
    3    5 B      9, 17
    4    1 H      13, 15, 28, 32-60
constraining bond 12 31 to    1.7222000 Å, actual value:    1.6082365 Å
constraining bond 10 29 to    2.1667000 Å, actual value:    2.2796087 Å

           -------------------------------------------------
          |                 G F N 2 - x T B                 |
           -------------------------------------------------

        Reference                      10.1021/acs.jctc.8b01176
      * Hamiltonian:
        H0-scaling (s, p, d)           1.850000    2.230000    2.230000
        zeta-weighting                 0.500000
      * Dispersion:
        s8                             2.700000
        a1                             0.520000
        a2                             5.000000
        s9                             5.000000
      * Repulsion:
        kExp                           1.500000    1.000000
        rExp                           1.000000
      * Coulomb:
        alpha                          2.000000
        third order                    shell-resolved
        anisotropic                    true
        a3                             3.000000
        a5                             4.000000
        cn-shift                       1.200000
        cn-exp                         4.000000
        max-rad                        5.000000


          ...................................................
          :                      SETUP                      :
          :.................................................:
          :  # basis functions                 144          :
          :  # atomic orbitals                 144          :
          :  # shells                           88          :
          :  # electrons                       150          :
          :  max. iterations                   250          :
          :  Hamiltonian                  GFN2-xTB          :
          :  restarted?                      false          :
          :  GBSA solvation                  false          :
          :  PC potential                    false          :
          :  electronic temp.          300.0000000     K    :
          :  accuracy                    1.0000000          :
          :  -> integral cutoff          0.2500000E+02      :
          :  -> integral neglect         0.1000000E-07      :
          :  -> SCF convergence          0.1000000E-05 Eh   :
          :  -> wf. convergence          0.1000000E-03 e    :
          :  Broyden damping             0.4000000          :
          ...................................................

 iter      E             dE          RMSdq      gap      omega  full diag
   1    -82.9721040 -0.829721E+02  0.467E+00    3.52       0.0  T
   2    -83.3524409 -0.380337E+00  0.287E+00    3.15       1.0  T
   3    -83.3646824 -0.122415E-01  0.136E+00    3.47       1.0  T
   4    -83.3864095 -0.217271E-01  0.427E-01    3.35       1.0  T
   5    -83.3976111 -0.112017E-01  0.179E-01    3.40       1.0  T
   6    -83.3981976 -0.586498E-03  0.117E-01    3.41       1.0  T
   7    -83.3985492 -0.351531E-03  0.289E-02    3.40       1.0  T
   8    -83.3985721 -0.229811E-04  0.979E-03    3.40       1.3  T
   9    -83.3985737 -0.161113E-05  0.518E-03    3.40       2.5  T
  10    -83.3985743 -0.551641E-06  0.252E-03    3.40       5.1  T
  11    -83.3985745 -0.160031E-06  0.540E-04    3.40      23.9  T
  12    -83.3985745 -0.800220E-08  0.244E-04    3.40      52.9  T

   *** convergence criteria satisfied after 12 iterations ***

         #    Occupation            Energy/Eh            Energy/eV
      -------------------------------------------------------------
         1        2.0000           -0.6878951             -18.7186
       ...           ...                  ...                  ...
        69        2.0000           -0.4067181             -11.0674
        70        2.0000           -0.3978401             -10.8258
        71        2.0000           -0.3961206             -10.7790
        72        2.0000           -0.3957021             -10.7676
        73        2.0000           -0.3867183             -10.5231
        74        2.0000           -0.3532872              -9.6134
        75        2.0000           -0.3479542              -9.4683 (HOMO)
        76                         -0.2230330              -6.0690 (LUMO)
        77                         -0.2130167              -5.7965
        78                         -0.1884998              -5.1293
        79                         -0.1026719              -2.7938
        80                         -0.0936155              -2.5474
       ...                                ...                  ...
       144                          0.6837568              18.6060
      -------------------------------------------------------------
                  HL-Gap            0.1249211 Eh            3.3993 eV
             Fermi-level           -0.2854936 Eh           -7.7687 eV

 SCC (total)                   0 d,  0 h,  0 min,  0.069 sec
 SCC setup                      ...        0 min,  0.000 sec (  0.389%)
 Dispersion                     ...        0 min,  0.000 sec (  0.715%)
 classical contributions        ...        0 min,  0.000 sec (  0.278%)
 integral evaluation            ...        0 min,  0.006 sec (  8.951%)
 iterations                     ...        0 min,  0.034 sec ( 48.812%)
 molecular gradient             ...        0 min,  0.028 sec ( 40.346%)
 printout                       ...        0 min,  0.000 sec (  0.497%)

         :::::::::::::::::::::::::::::::::::::::::::::::::::::
         ::                     SUMMARY                     ::
         :::::::::::::::::::::::::::::::::::::::::::::::::::::
         :: total energy             -82.133945490373 Eh    ::
         :: gradient norm              1.679797289366 Eh/a0 ::
         :: HOMO-LUMO gap              3.399277221457 eV    ::
         ::.................................................::
         :: SCC energy               -83.398574462344 Eh    ::
         :: -> isotropic ES            0.147262810670 Eh    ::
         :: -> anisotropic ES          0.012274874951 Eh    ::
         :: -> anisotropic XC          0.026722589222 Eh    ::
         :: -> dispersion             -0.061390120542 Eh    ::
         :: repulsion energy           1.080064168887 Eh    ::
         :: add. restraining           0.183810127221 Eh    ::
         :: total charge              -0.000000000000 e     ::
         :::::::::::::::::::::::::::::::::::::::::::::::::::::

      ----------------------------------------------------------- 
     |                   =====================                   |
     |                        A N C O P T                        |
     |                   =====================                   |
     |               Approximate Normal Coordinate               |
     |                Rational Function Optimizer                |
      ----------------------------------------------------------- 

          ...................................................
          :                      SETUP                      :
          :.................................................:
          :   optimization level            normal          :
          :   max. optcycles                   200          :
          :   ANC micro-cycles                  20          :
          :   degrees of freedom               174          :
          :.................................................:
          :   RF solver                   davidson          :
          :   write xtbopt.log                true          :
          :   linear?                        false          :
          :   energy convergence         0.5000000E-05 Eh   :
          :   grad. convergence          0.1000000E-02 Eh/α :
          :   maximium RF displ.         1.0000000          :
          :   Hlow (freq-cutoff)         0.1000000E-01      :
          :   Hmax (freq-cutoff)         5.0000000          :
          :   S6 in model hess.         20.0000000          :
          ...................................................

generating ANC from model Hessian ...
Using Lindh-Hessian (1995)
 Shifting diagonal of input Hessian by   0.22587913732590151     
 Lowest  eigenvalues of input Hessian
    0.010000    0.135507    0.000000    0.000000    0.000000    0.000000
    0.000000    0.000000    0.225974    0.226017    0.226140    0.227502
    0.227748    0.228473    0.229171    0.229225    0.230642    0.231068
 Highest eigenvalues
    1.940981    2.110126    2.124266    2.294383    8.929466    9.363533


........................................................................
.............................. CYCLE    1 ..............................
........................................................................
   1    -83.3985745 -0.833986E+02  0.973E-05    3.40       0.0  T
   2    -83.3985745 -0.505139E-09  0.615E-05    3.40     210.0  T
   3    -83.3985745 -0.224929E-09  0.208E-05    3.40     621.3  T
     SCC iter.                  ...        0 min,  0.009 sec
     gradient                   ...        0 min,  0.028 sec
 * total energy  :   -82.1339455 Eh     change       -0.2730133E-08 Eh
   gradient norm :     1.6797969 Eh/α   predicted     0.0000000E+00 (-100.00%)
   displ. norm   :     0.3109641 α      lambda       -0.5160956E+00
   maximum displ.:     0.2284772 α      in ANC's #174, #173, #127, ...

........................................................................
.............................. CYCLE    2 ..............................
........................................................................
   1    -83.3754860 -0.833755E+02  0.337E-01    3.26       0.0  T
   2    -83.3754466  0.393167E-04  0.248E-01    3.26       1.0  T
   3    -83.3756638 -0.217114E-03  0.153E-01    3.27       1.0  T
   4    -83.3764826 -0.818866E-03  0.328E-02    3.26       1.0  T
   5    -83.3765386 -0.559276E-04  0.611E-03    3.26       2.1  T
   6    -83.3765394 -0.797183E-06  0.319E-03    3.26       4.0  T
   7    -83.3765394 -0.628804E-07  0.942E-04    3.26      13.7  T
   8    -83.3765395 -0.425700E-07  0.307E-04    3.26      42.1  T
     SCC iter.                  ...        0 min,  0.022 sec
     gradient                   ...        0 min,  0.028 sec
 * total energy  :   -82.2603596 Eh     change       -0.1264141E+00 Eh
   gradient norm :     0.8623584 Eh/α   predicted    -0.2830842E+00 ( 123.93%)
   displ. norm   :     0.1076913 α      lambda       -0.8889335E-01
   maximum displ.:     0.0781124 α      in ANC's #174, #173, #127, ...

........................................................................
.............................. CYCLE    3 ..............................
........................................................................
   1    -83.3852494 -0.833852E+02  0.121E-01    3.32       0.0  T
   2    -83.3852489  0.517560E-06  0.988E-02    3.32       1.0  T
   3    -83.3854336 -0.184743E-03  0.543E-02    3.31       1.0  T
   4    -83.3854745 -0.408586E-04  0.145E-02    3.32       1.0  T
   5    -83.3854846 -0.100830E-04  0.340E-03    3.32       3.8  T
   6    -83.3854851 -0.511336E-06  0.134E-03    3.32       9.7  T
   7    -83.3854851 -0.112977E-07  0.434E-04    3.32      29.7  T
   8    -83.3854851 -0.636713E-08  0.132E-04    3.32      98.2  T
     SCC iter.                  ...        0 min,  0.024 sec
     gradient                   ...        0 min,  0.028 sec
 * total energy  :   -82.3061466 Eh     change       -0.4578705E-01 Eh
   gradient norm :     0.0332186 Eh/α   predicted    -0.4500223E-01 (  -1.71%)
   displ. norm   :     0.0415640 α      lambda       -0.9020284E-03
   maximum displ.:     0.0133234 α      in ANC's #28, #1, #109, ...

........................................................................
.............................. CYCLE    4 ..............................
........................................................................
   1    -83.3859106 -0.833859E+02  0.278E-02    3.32       0.0  T
   2    -83.3859134 -0.283463E-05  0.174E-02    3.32       1.0  T
   3    -83.3859083  0.515390E-05  0.124E-02    3.32       1.0  T
   4    -83.3859157 -0.739436E-05  0.299E-03    3.32       4.3  T
   5    -83.3859161 -0.449042E-06  0.740E-04    3.32      17.5  T
   6    -83.3859161 -0.216222E-07  0.321E-04    3.32      40.3  T
     SCC iter.                  ...        0 min,  0.017 sec
     gradient                   ...        0 min,  0.027 sec
 * total energy  :   -82.3068451 Eh     change       -0.6984390E-03 Eh
   gradient norm :     0.0180445 Eh/α   predicted    -0.4518692E-03 ( -35.30%)
   displ. norm   :     0.2801588 α      lambda       -0.1994116E-02
   maximum displ.:     0.2497002 α      in ANC's #1, #28, #36, ...

........................................................................
.............................. CYCLE    5 ..............................
........................................................................
   1    -83.3806275 -0.833806E+02  0.188E-01    3.30       0.0  T
   2    -83.3806996 -0.720848E-04  0.109E-01    3.29       1.0  T
   3    -83.3805889  0.110712E-03  0.679E-02    3.30       1.0  T
   4    -83.3807492 -0.160345E-03  0.149E-02    3.30       1.0  T
   5    -83.3807625 -0.132274E-04  0.242E-03    3.30       5.3  T
   6    -83.3807627 -0.260982E-06  0.111E-03    3.30      11.7  T
   7    -83.3807627 -0.823484E-08  0.406E-04    3.30      31.8  T
   8    -83.3807627 -0.582091E-08  0.107E-04    3.30     121.1  T
     SCC iter.                  ...        0 min,  0.022 sec
     gradient                   ...        0 min,  0.028 sec
 * total energy  :   -82.3033699 Eh     change        0.3475209E-02 Eh
   gradient norm :     0.0742217 Eh/α   predicted    -0.1075284E-02 (-130.94%)
   displ. norm   :     0.2556894 α      lambda       -0.9146362E-02
   maximum displ.:     0.2530395 α      in ANC's #1, #28, #37, ...

........................................................................
.............................. CYCLE    6 ..............................
........................................................................
   1    -83.3865324 -0.833865E+02  0.167E-01    3.32       0.0  T
   2    -83.3865969 -0.644147E-04  0.945E-02    3.32       1.0  T
   3    -83.3865546  0.422971E-04  0.578E-02    3.32       1.0  T
   4    -83.3866441 -0.895307E-04  0.463E-03    3.32       2.8  T
   5    -83.3866452 -0.108273E-05  0.147E-03    3.32       8.8  T
   6    -83.3866452 -0.330251E-07  0.793E-04    3.32      16.3  T
   7    -83.3866452 -0.760227E-08  0.230E-04    3.32      56.2  T
     SCC iter.                  ...        0 min,  0.019 sec
     gradient                   ...        0 min,  0.028 sec
 * total energy  :   -82.3073777 Eh     change       -0.4007831E-02 Eh
   gradient norm :     0.0316580 Eh/α   predicted    -0.4872411E-02 (  21.57%)
   displ. norm   :     0.0694058 α      lambda       -0.9063399E-03
   maximum displ.:     0.0197890 α      in ANC's #109, #127, #28, ...

........................................................................
.............................. CYCLE    7 ..............................
........................................................................
   1    -83.3868511 -0.833869E+02  0.523E-02    3.31       0.0  T
   2    -83.3868617 -0.106307E-04  0.330E-02    3.31       1.0  T
   3    -83.3868472  0.144889E-04  0.245E-02    3.31       1.0  T
   4    -83.3868734 -0.261809E-04  0.563E-03    3.31       2.3  T
   5    -83.3868749 -0.145306E-05  0.156E-03    3.31       8.3  T
   6    -83.3868750 -0.105705E-06  0.605E-04    3.31      21.3  T
   7    -83.3868750 -0.525097E-08  0.199E-04    3.31      64.8  T
     SCC iter.                  ...        0 min,  0.019 sec
     gradient                   ...        0 min,  0.028 sec
 * total energy  :   -82.3076053 Eh     change       -0.2275813E-03 Eh
   gradient norm :     0.0217939 Eh/α   predicted    -0.4562358E-03 ( 100.47%)
   displ. norm   :     0.0456740 α      lambda       -0.6172857E-03
   maximum displ.:     0.0213880 α      in ANC's #28, #36, #29, ...

........................................................................
.............................. CYCLE    8 ..............................
........................................................................
   1    -83.3872223 -0.833872E+02  0.261E-02    3.31       0.0  T
   2    -83.3872233 -0.101993E-05  0.159E-02    3.31       1.0  T
   3    -83.3872171  0.621489E-05  0.109E-02    3.31       1.2  T
   4    -83.3872245 -0.739840E-05  0.179E-03    3.31       7.2  T
   5    -83.3872246 -0.150101E-06  0.519E-04    3.31      24.9  T
   6    -83.3872246 -0.994838E-08  0.237E-04    3.31      54.4  T
     SCC iter.                  ...        0 min,  0.017 sec
     gradient                   ...        0 min,  0.027 sec
 * total energy  :   -82.3078263 Eh     change       -0.2210782E-03 Eh
   gradient norm :     0.0060937 Eh/α   predicted    -0.1566100E-03 ( -29.16%)
   displ. norm   :     0.0735255 α      lambda       -0.8208933E-03
   maximum displ.:     0.0395142 α      in ANC's #28, #29, #36, ...

........................................................................
.............................. CYCLE    9 ..............................
........................................................................
   1    -83.3877481 -0.833877E+02  0.367E-02    3.31       0.0  T
   2    -83.3877487 -0.670651E-06  0.218E-02    3.31       1.0  T
   3    -83.3877455  0.326592E-05  0.681E-03    3.31       1.9  T
   4    -83.3877489 -0.348529E-05  0.159E-03    3.31       8.1  T
   5    -83.3877491 -0.132146E-06  0.421E-04    3.31      30.7  T
   6    -83.3877491 -0.657934E-09  0.284E-04    3.31      45.5  T
     SCC iter.                  ...        0 min,  0.016 sec
     gradient                   ...        0 min,  0.027 sec
 * total energy  :   -82.3080343 Eh     change       -0.2079284E-03 Eh
   gradient norm :     0.0096779 Eh/α   predicted    -0.1389375E-03 ( -33.18%)
   displ. norm   :     0.1125808 α      lambda       -0.1310299E-02
   maximum displ.:     0.0640735 α      in ANC's #28, #29, #36, ...

........................................................................
.............................. CYCLE   10 ..............................
........................................................................
   1    -83.3884246 -0.833884E+02  0.537E-02    3.31       0.0  T
   2    -83.3884252 -0.579564E-06  0.318E-02    3.31       1.0  T
   3    -83.3884246  0.583332E-06  0.397E-03    3.31       3.3  T
   4    -83.3884254 -0.748195E-06  0.897E-04    3.31      14.4  T
   5    -83.3884254 -0.188018E-07  0.547E-04    3.31      23.6  T
     SCC iter.                  ...        0 min,  0.014 sec
     gradient                   ...        0 min,  0.028 sec
 * total energy  :   -82.3082587 Eh     change       -0.2244092E-03 Eh
   gradient norm :     0.0141171 Eh/α   predicted    -0.1679706E-03 ( -25.15%)
   displ. norm   :     0.0770661 α      lambda       -0.8200884E-03
   maximum displ.:     0.0460279 α      in ANC's #28, #29, #36, ...

........................................................................
.............................. CYCLE   11 ..............................
........................................................................
   1    -83.3889197 -0.833889E+02  0.354E-02    3.31       0.0  T
   2    -83.3889201 -0.467183E-06  0.210E-02    3.31       1.0  T
   3    -83.3889176  0.252970E-05  0.644E-03    3.31       2.0  T
   4    -83.3889204 -0.275557E-05  0.111E-03    3.31      11.6  T
   5    -83.3889204 -0.592442E-07  0.475E-04    3.31      27.2  T
   6    -83.3889204 -0.485147E-08  0.269E-04    3.31      47.9  T
     SCC iter.                  ...        0 min,  0.017 sec
     gradient                   ...        0 min,  0.027 sec
 * total energy  :   -82.3083727 Eh     change       -0.1140448E-03 Eh
   gradient norm :     0.0066886 Eh/α   predicted    -0.8384083E-04 ( -26.48%)
   displ. norm   :     0.0450565 α      lambda       -0.5561666E-03
   maximum displ.:     0.0272368 α      in ANC's #28, #29, #8, ...

........................................................................
.............................. CYCLE   12 ..............................
........................................................................
   1    -83.3894043 -0.833894E+02  0.217E-02    3.31       0.0  T
   2    -83.3894047 -0.438856E-06  0.129E-02    3.31       1.0  T
   3    -83.3894030  0.173163E-05  0.533E-03    3.31       2.4  T
   4    -83.3894049 -0.189206E-05  0.112E-03    3.31      11.5  T
   5    -83.3894049 -0.678136E-07  0.327E-04    3.31      39.5  T
   6    -83.3894049 -0.296147E-08  0.183E-04    3.31      70.5  T
     SCC iter.                  ...        0 min,  0.017 sec
     gradient                   ...        0 min,  0.028 sec
 * total energy  :   -82.3084394 Eh     change       -0.6666592E-04 Eh
   gradient norm :     0.0044836 Eh/α   predicted    -0.4745733E-04 ( -28.81%)
   displ. norm   :     0.0380781 α      lambda       -0.5041137E-03
   maximum displ.:     0.0214899 α      in ANC's #28, #8, #29, ...

........................................................................
.............................. CYCLE   13 ..............................
........................................................................
   1    -83.3897982 -0.833898E+02  0.169E-02    3.31       0.0  T
   2    -83.3897984 -0.200140E-06  0.100E-02    3.31       1.3  T
   3    -83.3897978  0.540477E-06  0.304E-03    3.31       4.2  T
   4    -83.3897984 -0.591219E-06  0.680E-04    3.31      19.0  T
   5    -83.3897985 -0.240092E-07  0.201E-04    3.31      64.2  T
     SCC iter.                  ...        0 min,  0.014 sec
     gradient                   ...        0 min,  0.028 sec
 * total energy  :   -82.3084926 Eh     change       -0.5315758E-04 Eh
   gradient norm :     0.0063942 Eh/α   predicted    -0.3681287E-04 ( -30.75%)
   displ. norm   :     0.0446324 α      lambda       -0.5574773E-03
   maximum displ.:     0.0236659 α      in ANC's #28, #8, #43, ...

........................................................................
.............................. CYCLE   14 ..............................
........................................................................
   1    -83.3899778 -0.833900E+02  0.176E-02    3.31       0.0  T
   2    -83.3899779 -0.961001E-07  0.104E-02    3.31       1.2  T
   3    -83.3899774  0.429181E-06  0.289E-03    3.31       4.5  T
   4    -83.3899779 -0.459435E-06  0.535E-04    3.31      24.1  T
   5    -83.3899779 -0.157749E-07  0.236E-04    3.31      54.7  T
     SCC iter.                  ...        0 min,  0.014 sec
     gradient                   ...        0 min,  0.028 sec
 * total energy  :   -82.3085440 Eh     change       -0.5148190E-04 Eh
   gradient norm :     0.0058368 Eh/α   predicted    -0.3557391E-04 ( -30.90%)
   displ. norm   :     0.0495633 α      lambda       -0.6542939E-03
   maximum displ.:     0.0267968 α      in ANC's #28, #8, #43, ...

........................................................................
.............................. CYCLE   15 ..............................
........................................................................
   1    -83.3897740 -0.833898E+02  0.161E-02    3.31       0.0  T
   2    -83.3897742 -0.110940E-06  0.964E-03    3.31       1.3  T
   3    -83.3897730  0.118188E-05  0.442E-03    3.31       2.9  T
   4    -83.3897743 -0.129596E-05  0.603E-04    3.31      21.4  T
   5    -83.3897743 -0.149810E-07  0.290E-04    3.31      44.5  T
   6    -83.3897743 -0.221321E-08  0.132E-04    3.31      97.9  T
     SCC iter.                  ...        0 min,  0.017 sec
     gradient                   ...        0 min,  0.028 sec
 * total energy  :   -82.3085905 Eh     change       -0.4650404E-04 Eh
   gradient norm :     0.0051952 Eh/α   predicted    -0.3331252E-04 ( -28.37%)
   displ. norm   :     0.0385631 α      lambda       -0.4839374E-03
   maximum displ.:     0.0207917 α      in ANC's #28, #8, #37, ...

........................................................................
.............................. CYCLE   16 ..............................
........................................................................
   1    -83.3893299 -0.833893E+02  0.123E-02    3.32       0.0  T
   2    -83.3893300 -0.137275E-06  0.738E-03    3.32       1.7  T
   3    -83.3893292  0.816979E-06  0.381E-03    3.32       3.4  T
   4    -83.3893301 -0.920963E-06  0.640E-04    3.32      20.2  T
   5    -83.3893301 -0.184927E-07  0.257E-04    3.32      50.3  T
     SCC iter.                  ...        0 min,  0.014 sec
     gradient                   ...        0 min,  0.027 sec
 * total energy  :   -82.3086219 Eh     change       -0.3135792E-04 Eh
   gradient norm :     0.0028308 Eh/α   predicted    -0.2236647E-04 ( -28.67%)
   displ. norm   :     0.0298436 α      lambda       -0.3663731E-03
   maximum displ.:     0.0154303 α      in ANC's #28, #8, #6, ...

........................................................................
.............................. CYCLE   17 ..............................
........................................................................
   1    -83.3888831 -0.833889E+02  0.112E-02    3.32       0.0  T
   2    -83.3888832 -0.111905E-06  0.667E-03    3.32       1.9  T
   3    -83.3888829  0.325055E-06  0.266E-03    3.32       4.9  T
   4    -83.3888833 -0.374204E-06  0.471E-04    3.32      27.4  T
   5    -83.3888833 -0.905796E-08  0.179E-04    3.32      72.2  T
     SCC iter.                  ...        0 min,  0.014 sec
     gradient                   ...        0 min,  0.028 sec
 * total energy  :   -82.3086444 Eh     change       -0.2247178E-04 Eh
   gradient norm :     0.0028445 Eh/α   predicted    -0.1556260E-04 ( -30.75%)
   displ. norm   :     0.0317210 α      lambda       -0.3545599E-03
   maximum displ.:     0.0162139 α      in ANC's #28, #8, #6, ...

........................................................................
.............................. CYCLE   18 ..............................
........................................................................
   1    -83.3885062 -0.833885E+02  0.127E-02    3.31       0.0  T
   2    -83.3885062 -0.519344E-07  0.751E-03    3.31       1.7  T
   3    -83.3885061  0.178388E-06  0.200E-03    3.31       6.5  T
   4    -83.3885063 -0.197641E-06  0.417E-04    3.31      31.0  T
   5    -83.3885063 -0.687939E-08  0.202E-04    3.31      64.0  T
     SCC iter.                  ...        0 min,  0.014 sec
     gradient                   ...        0 min,  0.028 sec
 * total energy  :   -82.3086649 Eh     change       -0.2056481E-04 Eh
   gradient norm :     0.0036512 Eh/α   predicted    -0.1389284E-04 ( -32.44%)
   displ. norm   :     0.0368442 α      lambda       -0.3983197E-03
   maximum displ.:     0.0176684 α      in ANC's #28, #8, #29, ...

........................................................................
.............................. CYCLE   19 ..............................
........................................................................
   1    -83.3882526 -0.833883E+02  0.138E-02    3.31       0.0  T
   2    -83.3882526 -0.338091E-07  0.826E-03    3.31       1.6  T
   3    -83.3882523  0.297318E-06  0.223E-03    3.31       5.8  T
   4    -83.3882526 -0.321509E-06  0.418E-04    3.31      30.9  T
   5    -83.3882526 -0.728191E-08  0.207E-04    3.31      62.4  T
     SCC iter.                  ...        0 min,  0.014 sec
     gradient                   ...        0 min,  0.028 sec
 * total energy  :   -82.3086863 Eh     change       -0.2141349E-04 Eh
   gradient norm :     0.0034882 Eh/α   predicted    -0.1449498E-04 ( -32.31%)
   displ. norm   :     0.0423555 α      lambda       -0.4738683E-03
   maximum displ.:     0.0190718 α      in ANC's #28, #8, #29, ...

........................................................................
.............................. CYCLE   20 ..............................
........................................................................
   1    -83.3881500 -0.833881E+02  0.139E-02    3.31       0.0  T
   2    -83.3881500 -0.619601E-07  0.840E-03    3.31       1.5  T
   3    -83.3881494  0.572184E-06  0.295E-03    3.31       4.4  T
   4    -83.3881501 -0.623266E-06  0.450E-04    3.31      28.7  T
   5    -83.3881501 -0.766150E-08  0.226E-04    3.31      57.2  T
     SCC iter.                  ...        0 min,  0.014 sec
     gradient                   ...        0 min,  0.028 sec
 * total energy  :   -82.3087082 Eh     change       -0.2188803E-04 Eh
   gradient norm :     0.0028987 Eh/α   predicted    -0.1510038E-04 ( -31.01%)
   displ. norm   :     0.0455324 α      lambda       -0.4603294E-03
   maximum displ.:     0.0203125 α      in ANC's #29, #28, #8, ...
 * RMSD in coord.:     0.0937897 α      energy gain  -0.1747627E+00 Eh

generating ANC from model Hessian ...
Using Lindh-Hessian (1995)
 Shifting diagonal of input Hessian by    9.9088130609240131E-003
 Lowest  eigenvalues of input Hessian
    0.000000    0.000000    0.000000    0.000000    0.000000    0.000000
    0.010000    0.010037    0.010101    0.010308    0.011078    0.011787
    0.012278    0.013201    0.013230    0.013597    0.015007    0.015121
 Highest eigenvalues
    1.724319    1.880045    1.912476    1.924670    8.696027    8.952713


........................................................................
.............................. CYCLE   21 ..............................
........................................................................
   1    -83.3881356 -0.833881E+02  0.136E-02    3.31       0.0  T
   2    -83.3881357 -0.926485E-07  0.823E-03    3.31       1.6  T
   3    -83.3881352  0.471040E-06  0.280E-03    3.31       4.6  T
   4    -83.3881357 -0.521104E-06  0.425E-04    3.31      30.4  T
   5    -83.3881357 -0.642052E-08  0.198E-04    3.31      65.1  T
     SCC iter.                  ...        0 min,  0.014 sec
     gradient                   ...        0 min,  0.028 sec
 * total energy  :   -82.3087280 Eh     change       -0.1977939E-04 Eh
   gradient norm :     0.0025873 Eh/α   predicted     0.0000000E+00 (-100.00%)
   displ. norm   :     0.0499820 α      lambda       -0.4891704E-04
   maximum displ.:     0.0214904 α      in ANC's #10, #6, #1, ...

........................................................................
.............................. CYCLE   22 ..............................
........................................................................
   1    -83.3883170 -0.833883E+02  0.147E-02    3.31       0.0  T
   2    -83.3883171 -0.532614E-07  0.870E-03    3.31       1.5  T
   3    -83.3883166  0.464162E-06  0.310E-03    3.31       4.2  T
   4    -83.3883171 -0.511828E-06  0.438E-04    3.31      29.5  T
   5    -83.3883171 -0.830416E-08  0.207E-04    3.31      62.3  T
     SCC iter.                  ...        0 min,  0.014 sec
     gradient                   ...        0 min,  0.029 sec
 * total energy  :   -82.3087706 Eh     change       -0.4255802E-04 Eh
   gradient norm :     0.0015279 Eh/α   predicted    -0.2878496E-04 ( -32.36%)
   displ. norm   :     0.1337325 α      lambda       -0.4934918E-04
   maximum displ.:     0.0637541 α      in ANC's #6, #10, #1, ...

........................................................................
.............................. CYCLE   23 ..............................
........................................................................
   1    -83.3885167 -0.833885E+02  0.310E-02    3.31       0.0  T
   2    -83.3885169 -0.203464E-06  0.185E-02    3.31       1.0  T
   3    -83.3885160  0.899574E-06  0.438E-03    3.31       2.9  T
   4    -83.3885171 -0.102124E-05  0.640E-04    3.31      20.2  T
   5    -83.3885171 -0.559618E-08  0.388E-04    3.31      33.3  T
   6    -83.3885171 -0.202627E-08  0.177E-04    3.31      72.8  T
     SCC iter.                  ...        0 min,  0.017 sec
     gradient                   ...        0 min,  0.027 sec
 * total energy  :   -82.3088062 Eh     change       -0.3565319E-04 Eh
   gradient norm :     0.0020682 Eh/α   predicted    -0.2487215E-04 ( -30.24%)
   displ. norm   :     0.0414489 α      lambda       -0.1696081E-04
   maximum displ.:     0.0231889 α      in ANC's #1, #6, #2, ...

........................................................................
.............................. CYCLE   24 ..............................
........................................................................
   1    -83.3884920 -0.833885E+02  0.811E-03    3.31       0.0  T
   2    -83.3884920 -0.112540E-07  0.487E-03    3.31       2.7  T
   3    -83.3884920  0.106343E-07  0.510E-04    3.31      25.3  T
   4    -83.3884920 -0.125521E-07  0.205E-04    3.31      63.1  T
     SCC iter.                  ...        0 min,  0.011 sec
     gradient                   ...        0 min,  0.028 sec
 * total energy  :   -82.3088209 Eh     change       -0.1464149E-04 Eh
   gradient norm :     0.0018192 Eh/α   predicted    -0.8495445E-05 ( -41.98%)
   displ. norm   :     0.1687885 α      lambda       -0.3915652E-04
   maximum displ.:     0.0968301 α      in ANC's #1, #6, #2, ...

........................................................................
.............................. CYCLE   25 ..............................
........................................................................
   1    -83.3881459 -0.833881E+02  0.310E-02    3.31       0.0  T
   2    -83.3881461 -0.129862E-06  0.186E-02    3.31       1.0  T
   3    -83.3881457  0.361040E-06  0.264E-03    3.31       4.9  T
   4    -83.3881461 -0.404404E-06  0.756E-04    3.31      17.1  T
   5    -83.3881461 -0.171294E-07  0.438E-04    3.31      29.5  T
     SCC iter.                  ...        0 min,  0.014 sec
     gradient                   ...        0 min,  0.028 sec
 * total energy  :   -82.3088502 Eh     change       -0.2936108E-04 Eh
   gradient norm :     0.0027864 Eh/α   predicted    -0.1983966E-04 ( -32.43%)
   displ. norm   :     0.0520602 α      lambda       -0.1267899E-04
   maximum displ.:     0.0335417 α      in ANC's #1, #6, #2, ...

........................................................................
.............................. CYCLE   26 ..............................
........................................................................
   1    -83.3880916 -0.833881E+02  0.750E-03    3.31       0.0  T
   2    -83.3880916 -0.774149E-08  0.453E-03    3.31       2.9  T
   3    -83.3880915  0.122422E-06  0.147E-03    3.31       8.8  T
   4    -83.3880916 -0.131392E-06  0.205E-04    3.31      63.1  T
   5    -83.3880916 -0.150450E-08  0.977E-05    3.31     132.1  T
     SCC iter.                  ...        0 min,  0.014 sec
     gradient                   ...        0 min,  0.027 sec
 * total energy  :   -82.3088608 Eh     change       -0.1061596E-04 Eh
   gradient norm :     0.0020130 Eh/α   predicted    -0.6371543E-05 ( -39.98%)
   displ. norm   :     0.0845986 α      lambda       -0.2140786E-04
   maximum displ.:     0.0551915 α      in ANC's #1, #2, #6, ...

........................................................................
.............................. CYCLE   27 ..............................
........................................................................
   1    -83.3881310 -0.833881E+02  0.115E-02    3.31       0.0  T
   2    -83.3881310 -0.336303E-07  0.684E-03    3.31       1.9  T
   3    -83.3881308  0.201973E-06  0.197E-03    3.31       6.6  T
   4    -83.3881311 -0.218512E-06  0.405E-04    3.31      31.9  T
   5    -83.3881311 -0.729489E-08  0.170E-04    3.31      76.2  T
     SCC iter.                  ...        0 min,  0.014 sec
     gradient                   ...        0 min,  0.028 sec
 * total energy  :   -82.3088781 Eh     change       -0.1726535E-04 Eh
   gradient norm :     0.0030399 Eh/α   predicted    -0.1078252E-04 ( -37.55%)
   displ. norm   :     0.1114636 α      lambda       -0.2052881E-04
   maximum displ.:     0.0731681 α      in ANC's #1, #2, #4, ...

........................................................................
.............................. CYCLE   28 ..............................
........................................................................
   1    -83.3881641 -0.833882E+02  0.134E-02    3.31       0.0  T
   2    -83.3881641 -0.422700E-07  0.797E-03    3.31       1.6  T
   3    -83.3881639  0.159748E-06  0.180E-03    3.31       7.2  T
   4    -83.3881641 -0.177699E-06  0.411E-04    3.31      31.4  T
   5    -83.3881641 -0.583941E-08  0.204E-04    3.31      63.4  T
     SCC iter.                  ...        0 min,  0.014 sec
     gradient                   ...        0 min,  0.028 sec
 * total energy  :   -82.3088948 Eh     change       -0.1668093E-04 Eh
   gradient norm :     0.0024263 Eh/α   predicted    -0.1039324E-04 ( -37.69%)
   displ. norm   :     0.1156555 α      lambda       -0.1785778E-04
   maximum displ.:     0.0764112 α      in ANC's #1, #2, #4, ...

........................................................................
.............................. CYCLE   29 ..............................
........................................................................
   1    -83.3881967 -0.833882E+02  0.125E-02    3.31       0.0  T
   2    -83.3881967 -0.341596E-07  0.746E-03    3.31       1.7  T
   3    -83.3881966  0.651943E-07  0.116E-03    3.31      11.2  T
   4    -83.3881967 -0.776994E-07  0.322E-04    3.31      40.1  T
   5    -83.3881967 -0.219065E-08  0.182E-04    3.31      71.0  T
     SCC iter.                  ...        0 min,  0.014 sec
     gradient                   ...        0 min,  0.028 sec
 * total energy  :   -82.3089105 Eh     change       -0.1572640E-04 Eh
   gradient norm :     0.0014301 Eh/α   predicted    -0.9052189E-05 ( -42.44%)
   displ. norm   :     0.1861246 α      lambda       -0.1951862E-04
   maximum displ.:     0.1235394 α      in ANC's #1, #2, #4, ...

........................................................................
.............................. CYCLE   30 ..............................
........................................................................
   1    -83.3882237 -0.833882E+02  0.191E-02    3.31       0.0  T
   2    -83.3882238 -0.871263E-07  0.114E-02    3.31       1.1  T
   3    -83.3882236  0.113841E-06  0.147E-03    3.31       8.8  T
   4    -83.3882238 -0.138158E-06  0.467E-04    3.31      27.7  T
   5    -83.3882238 -0.665992E-08  0.256E-04    3.31      50.4  T
     SCC iter.                  ...        0 min,  0.014 sec
     gradient                   ...        0 min,  0.028 sec
 * total energy  :   -82.3089350 Eh     change       -0.2452766E-04 Eh
   gradient norm :     0.0012224 Eh/α   predicted    -0.9911069E-05 ( -59.59%)
   displ. norm   :     0.1676922 α      lambda       -0.1630229E-04
   maximum displ.:     0.1146216 α      in ANC's #1, #2, #3, ...

........................................................................
.............................. CYCLE   31 ..............................
........................................................................
   1    -83.3882804 -0.833883E+02  0.162E-02    3.31       0.0  T
   2    -83.3882805 -0.604993E-07  0.970E-03    3.31       1.3  T
   3    -83.3882804  0.465869E-07  0.104E-03    3.31      12.4  T
   4    -83.3882805 -0.612791E-07  0.379E-04    3.31      34.1  T
   5    -83.3882805 -0.428359E-08  0.200E-04    3.31      64.6  T
     SCC iter.                  ...        0 min,  0.014 sec
     gradient                   ...        0 min,  0.028 sec
 * total energy  :   -82.3089560 Eh     change       -0.2091780E-04 Eh
   gradient norm :     0.0014106 Eh/α   predicted    -0.8254552E-05 ( -60.54%)
   displ. norm   :     0.1554794 α      lambda       -0.1494078E-04
   maximum displ.:     0.1084619 α      in ANC's #1, #2, #3, ...

........................................................................
.............................. CYCLE   32 ..............................
........................................................................
   1    -83.3883003 -0.833883E+02  0.146E-02    3.31       0.0  T
   2    -83.3883004 -0.430531E-07  0.871E-03    3.31       1.5  T
   3    -83.3883001  0.285350E-06  0.209E-03    3.31       6.2  T
   4    -83.3883004 -0.312130E-06  0.377E-04    3.31      34.3  T
   5    -83.3883004 -0.462354E-08  0.207E-04    3.31      62.4  T
     SCC iter.                  ...        0 min,  0.014 sec
     gradient                   ...        0 min,  0.028 sec
 * total energy  :   -82.3089748 Eh     change       -0.1879536E-04 Eh
   gradient norm :     0.0032589 Eh/α   predicted    -0.7552286E-05 ( -59.82%)
   displ. norm   :     0.1083598 α      lambda       -0.1656920E-04
   maximum displ.:     0.0760139 α      in ANC's #1, #2, #3, ...

........................................................................
.............................. CYCLE   33 ..............................
........................................................................
   1    -83.3883652 -0.833884E+02  0.102E-02    3.31       0.0  T
   2    -83.3883652 -0.140483E-07  0.610E-03    3.31       2.1  T
   3    -83.3883652  0.120323E-07  0.605E-04    3.31      21.4  T
   4    -83.3883652 -0.161849E-07  0.242E-04    3.31      53.4  T
     SCC iter.                  ...        0 min,  0.011 sec
     gradient                   ...        0 min,  0.028 sec
 * total energy  :   -82.3089897 Eh     change       -0.1496590E-04 Eh
   gradient norm :     0.0009549 Eh/α   predicted    -0.8386410E-05 ( -43.96%)
   displ. norm   :     0.2073373 α      lambda       -0.2059579E-04
   maximum displ.:     0.1443629 α      in ANC's #1, #2, #3, ...

........................................................................
.............................. CYCLE   34 ..............................
........................................................................
   1    -83.3883560 -0.833884E+02  0.196E-02    3.31       0.0  T
   2    -83.3883561 -0.445068E-07  0.117E-02    3.31       1.1  T
   3    -83.3883560  0.247409E-07  0.976E-04    3.31      13.2  T
   4    -83.3883561 -0.395903E-07  0.435E-04    3.31      29.6  T
     SCC iter.                  ...        0 min,  0.011 sec
     gradient                   ...        0 min,  0.028 sec
 * total energy  :   -82.3090171 Eh     change       -0.2739950E-04 Eh
   gradient norm :     0.0024337 Eh/α   predicted    -0.1049719E-04 ( -61.69%)
   displ. norm   :     0.1597366 α      lambda       -0.2229725E-04
   maximum displ.:     0.1111510 α      in ANC's #1, #2, #3, ...

........................................................................
.............................. CYCLE   35 ..............................
........................................................................
   1    -83.3883345 -0.833883E+02  0.149E-02    3.31       0.0  T
   2    -83.3883345 -0.229164E-07  0.889E-03    3.31       1.5  T
   3    -83.3883345  0.403562E-07  0.103E-03    3.31      12.5  T
   4    -83.3883345 -0.512106E-07  0.330E-04    3.31      39.1  T
   5    -83.3883345 -0.136924E-08  0.176E-04    3.31      73.2  T
     SCC iter.                  ...        0 min,  0.014 sec
     gradient                   ...        0 min,  0.028 sec
 * total energy  :   -82.3090376 Eh     change       -0.2047976E-04 Eh
   gradient norm :     0.0015083 Eh/α   predicted    -0.1143524E-04 ( -44.16%)
   displ. norm   :     0.2954642 α      lambda       -0.2537254E-04
   maximum displ.:     0.2055196 α      in ANC's #1, #2, #3, ...

........................................................................
.............................. CYCLE   36 ..............................
........................................................................
   1    -83.3882212 -0.833882E+02  0.271E-02    3.31       0.0  T
   2    -83.3882212 -0.778045E-07  0.162E-02    3.31       1.0  T
   3    -83.3882212  0.711489E-07  0.154E-03    3.31       8.4  T
   4    -83.3882213 -0.104269E-06  0.591E-04    3.31      21.9  T
   5    -83.3882213 -0.407846E-08  0.316E-04    3.31      40.8  T
     SCC iter.                  ...        0 min,  0.014 sec
     gradient                   ...        0 min,  0.028 sec
 * total energy  :   -82.3090690 Eh     change       -0.3141710E-04 Eh
   gradient norm :     0.0004915 Eh/α   predicted    -0.1317952E-04 ( -58.05%)
   displ. norm   :     0.2327711 α      lambda       -0.1544137E-04
   maximum displ.:     0.1642048 α      in ANC's #1, #2, #3, ...

........................................................................
.............................. CYCLE   37 ..............................
........................................................................
   1    -83.3882812 -0.833883E+02  0.205E-02    3.31       0.0  T
   2    -83.3882812 -0.389017E-07  0.123E-02    3.31       1.0  T
   3    -83.3882812  0.249476E-07  0.104E-03    3.31      12.4  T
   4    -83.3882812 -0.430014E-07  0.436E-04    3.31      29.6  T
   5    -83.3882812 -0.175936E-08  0.218E-04    3.31      59.1  T
     SCC iter.                  ...        0 min,  0.014 sec
     gradient                   ...        0 min,  0.028 sec
 * total energy  :   -82.3090890 Eh     change       -0.1994683E-04 Eh
   gradient norm :     0.0004378 Eh/α   predicted    -0.7907183E-05 ( -60.36%)
   displ. norm   :     0.1728767 α      lambda       -0.1098262E-04
   maximum displ.:     0.1235683 α      in ANC's #1, #2, #3, ...

........................................................................
.............................. CYCLE   38 ..............................
........................................................................
   1    -83.3884097 -0.833884E+02  0.146E-02    3.31       0.0  T
   2    -83.3884097 -0.250084E-07  0.880E-03    3.31       1.5  T
   3    -83.3884097  0.366535E-07  0.962E-04    3.31      13.4  T
   4    -83.3884097 -0.486225E-07  0.316E-04    3.31      40.9  T
     SCC iter.                  ...        0 min,  0.011 sec
     gradient                   ...        0 min,  0.028 sec
 * total energy  :   -82.3091041 Eh     change       -0.1513152E-04 Eh
   gradient norm :     0.0004356 Eh/α   predicted    -0.5565491E-05 ( -63.22%)
   displ. norm   :     0.1660726 α      lambda       -0.1160800E-04
   maximum displ.:     0.1190254 α      in ANC's #1, #2, #3, ...

........................................................................
.............................. CYCLE   39 ..............................
........................................................................
   1    -83.3884609 -0.833885E+02  0.145E-02    3.31       0.0  T
   2    -83.3884609 -0.358963E-07  0.874E-03    3.31       1.5  T
   3    -83.3884608  0.126492E-06  0.155E-03    3.31       8.3  T
   4    -83.3884610 -0.143641E-06  0.369E-04    3.31      35.0  T
   5    -83.3884610 -0.330485E-08  0.207E-04    3.31      62.4  T
     SCC iter.                  ...        0 min,  0.014 sec
     gradient                   ...        0 min,  0.028 sec
 * total energy  :   -82.3091202 Eh     change       -0.1614699E-04 Eh
   gradient norm :     0.0004146 Eh/α   predicted    -0.5876053E-05 ( -63.61%)
   displ. norm   :     0.2017941 α      lambda       -0.1436906E-04
   maximum displ.:     0.1442282 α      in ANC's #1, #2, #3, ...

........................................................................
.............................. CYCLE   40 ..............................
........................................................................
   1    -83.3884055 -0.833884E+02  0.179E-02    3.31       0.0  T
   2    -83.3884056 -0.781040E-07  0.107E-02    3.31       1.2  T
   3    -83.3884054  0.195555E-06  0.188E-03    3.31       6.9  T
   4    -83.3884056 -0.229071E-06  0.430E-04    3.31      30.1  T
   5    -83.3884056 -0.356459E-08  0.250E-04    3.31      51.6  T
     SCC iter.                  ...        0 min,  0.014 sec
     gradient                   ...        0 min,  0.028 sec
 * total energy  :   -82.3091395 Eh     change       -0.1929691E-04 Eh
   gradient norm :     0.0003520 Eh/α   predicted    -0.7315432E-05 ( -62.09%)
   displ. norm   :     0.2313949 α      lambda       -0.1473598E-04
   maximum displ.:     0.1654023 α      in ANC's #1, #2, #3, ...

........................................................................
.............................. CYCLE   41 ..............................
........................................................................
   1    -83.3882786 -0.833883E+02  0.218E-02    3.31       0.0  T
   2    -83.3882787 -0.124868E-06  0.131E-02    3.31       1.0  T
   3    -83.3882784  0.317758E-06  0.235E-03    3.31       5.5  T
   4    -83.3882788 -0.372017E-06  0.494E-04    3.31      26.1  T
   5    -83.3882788 -0.428886E-08  0.288E-04    3.31      44.8  T
     SCC iter.                  ...        0 min,  0.014 sec
     gradient                   ...        0 min,  0.028 sec
 * total energy  :   -82.3091585 Eh     change       -0.1891828E-04 Eh
   gradient norm :     0.0004470 Eh/α   predicted    -0.7543787E-05 ( -60.12%)
   displ. norm   :     0.2128210 α      lambda       -0.1151212E-04
   maximum displ.:     0.1529216 α      in ANC's #1, #2, #4, ...

........................................................................
.............................. CYCLE   42 ..............................
........................................................................
   1    -83.3882132 -0.833882E+02  0.194E-02    3.31       0.0  T
   2    -83.3882133 -0.953510E-07  0.116E-02    3.31       1.1  T
   3    -83.3882131  0.209475E-06  0.193E-03    3.31       6.7  T
   4    -83.3882133 -0.250354E-06  0.430E-04    3.31      30.0  T
   5    -83.3882133 -0.269701E-08  0.256E-04    3.31      50.4  T
     SCC iter.                  ...        0 min,  0.014 sec
     gradient                   ...        0 min,  0.028 sec
 * total energy  :   -82.3091732 Eh     change       -0.1473423E-04 Eh
   gradient norm :     0.0004721 Eh/α   predicted    -0.5872408E-05 ( -60.14%)
   displ. norm   :     0.1750065 α      lambda       -0.8630795E-05
   maximum displ.:     0.1264923 α      in ANC's #1, #2, #4, ...
 * RMSD in coord.:     0.4014881 α      energy gain  -0.4649596E-03 Eh

generating ANC from model Hessian ...
Using Lindh-Hessian (1995)
 Shifting diagonal of input Hessian by    9.9018594334760231E-003
 Lowest  eigenvalues of input Hessian
    0.000000    0.000000    0.000000    0.000000    0.000000    0.000000
    0.010000    0.010032    0.010100    0.010308    0.011020    0.011747
    0.012327    0.013191    0.013218    0.013563    0.014862    0.015117
 Highest eigenvalues
    1.726917    1.877683    1.913542    1.922865    8.683705    8.954765


........................................................................
.............................. CYCLE   43 ..............................
........................................................................
   1    -83.3881873 -0.833882E+02  0.164E-02    3.31       0.0  T
   2    -83.3881873 -0.602933E-07  0.984E-03    3.31       1.3  T
   3    -83.3881872  0.134529E-06  0.157E-03    3.31       8.2  T
   4    -83.3881874 -0.160319E-06  0.369E-04    3.31      35.0  T
   5    -83.3881874 -0.183960E-08  0.223E-04    3.31      57.8  T
     SCC iter.                  ...        0 min,  0.014 sec
     gradient                   ...        0 min,  0.028 sec
 * total energy  :   -82.3091848 Eh     change       -0.1160512E-04 Eh
   gradient norm :     0.0004128 Eh/α   predicted     0.0000000E+00 (-100.00%)
   displ. norm   :     0.0206721 α      lambda       -0.8494731E-06
   maximum displ.:     0.0118798 α      in ANC's #1, #4, #3, ...

........................................................................
.............................. CYCLE   44 ..............................
........................................................................
   1    -83.3883305 -0.833883E+02  0.319E-03    3.31       0.0  T
   2    -83.3883305 -0.300392E-08  0.191E-03    3.31       6.8  T
   3    -83.3883304  0.158797E-07  0.521E-04    3.31      24.8  T
   4    -83.3883305 -0.169512E-07  0.112E-04    3.31     114.9  T
     SCC iter.                  ...        0 min,  0.012 sec
     gradient                   ...        0 min,  0.028 sec
 * total energy  :   -82.3091883 Eh     change       -0.3478559E-05 Eh
   gradient norm :     0.0004940 Eh/α   predicted    -0.1273264E-05 ( -63.40%)
   displ. norm   :     0.0966953 α      lambda       -0.1021473E-04
   maximum displ.:     0.0517585 α      in ANC's #1, #4, #3, ...

   *** GEOMETRY OPTIMIZATION CONVERGED AFTER 44 ITERATIONS ***

------------------------------------------------------------------------
 total energy gain   :        -0.1752428 Eh     -109.9665 kcal/mol
 total RMSD          :         0.4254161 a0        0.2251 Å
 total power (kW/mol):       -10.4568154 (step) -199.8555 (real)
------------------------------------------------------------------------

 ANCopt (total)                0 d,  0 h,  0 min,  2.302 sec
 optimizer setup                ...        0 min,  0.000 sec (  0.005%)
 model hessian                  ...        0 min,  0.096 sec (  4.153%)
 ANC generation                 ...        0 min,  0.008 sec (  0.349%)
 coordinate transformation      ...        0 min,  0.001 sec (  0.028%)
 single point calculation       ...        0 min,  2.182 sec ( 94.776%)
 optimization log               ...        0 min,  0.009 sec (  0.393%)
 hessian update                 ...        0 min,  0.001 sec (  0.044%)
 rational function              ...        0 min,  0.004 sec (  0.173%)

================
 final structure:
================
60
 xtb: 6.5.0 (homebrew)
C            3.41440258070095      -37.87673627878205       16.00760238133735
C            3.67422331477217      -38.21535395200631       17.47396150774136
O            3.22926514822161      -37.13909246854827       18.29727732516726
C            2.84048264620185      -39.44405928272040       17.85960423145789
C            5.19135733156146      -38.35830000552603       17.86209568457352
C            5.68622507676724      -39.79592811912514       18.00603183793138
C            6.12637735433545      -37.59954665478044       16.91155572661782
O            5.26618328101041      -37.70173304372537       19.12675683084813
B            4.14388142508342      -36.93755754288341       19.29545884008238
C            3.93009869372001      -35.95780819214504       20.48610486174112
C            4.95758781388955      -35.73003711615202       21.34356439172106
C            5.02314188062150      -34.77764262802617       22.40521397567132
H            5.96961381987476      -34.70864269556459       22.92268524975047
C            3.85003495918747      -34.14116196657204       23.10492088166536
H            4.08632114926405      -33.79972338472329       24.10823007907163
C            2.49702792984627      -34.75245443832686       23.06519380205906
B            1.72481981671222      -34.84764325779890       24.41892861160217
O            2.22672767363320      -34.39910242001228       25.61041434497459
C            1.36189365396524      -34.82637512261375       26.66211166145127
C            1.20963884149155      -33.70487669589276       27.68707622558637
C            2.03983357407696      -36.02931058886442       27.33053064156841
C            0.04195166970052      -35.21369062680788       25.90116877063686
C           -0.98480109300557      -34.07456762954644       25.86937769962661
C           -0.63941386759609      -36.48622445901997       26.39952220444586
O            0.48801503833173      -35.40969483370571       24.55934762293033
C            1.96294732007673      -35.24701789961012       21.94667875643669
C            2.59123088692343      -35.27806240060726       20.59483710132212
H            1.90088767885668      -35.73457157274257       19.88524362511266
C            3.11502837214639      -33.99817351612725       20.04201268317548
C            3.86449445453351      -33.09702126977469       20.69955708737686
C            4.37381969065908      -33.23116889729226       22.03247810519796
H            5.01727193781751      -32.43243583892255       22.37427622670945
H            2.34115895406244      -37.81316158564876       15.84579036985224
H            3.82145754479955      -38.65290955727576       15.36519784043739
H            3.85145507859098      -36.91977442845951       15.74157186814102
H            1.78926322995823      -39.20924572121292       17.70841639652395
H            2.98374487191394      -39.67972162349101       18.91116573026094
H            3.10165599422665      -40.30379080992457       17.24996532747383
H            5.55787094576188      -40.33375449986434       17.07054582354792
H            5.15796148300411      -40.31475475708850       18.79925277939184
H            6.74300780710149      -39.77979735372930       18.26071844848364
H            6.15696380347618      -38.06778506225172       15.93231182732362
H            7.12692936537260      -37.60359001395179       17.33793641320199
H            5.80743210974607      -36.56466153867038       16.81658583242782
H            5.88710225634627      -36.24077798549192       21.12347480118534
H            2.16957598166276      -33.53400023304772       28.16807926033045
H            0.48226778275875      -33.98481878190727       28.44425309823806
H            0.90161363396575      -32.77874140583669       27.21283644888484
H            3.01908645200093      -35.71889693583094       27.68792509313168
H            2.18492719548267      -36.82751572414313       26.60687702750073
H            1.45597982447479      -36.39367576753906       28.17033799556223
H           -1.40378192608753      -33.89574495671128       26.85509466619292
H           -1.78615041249594      -34.35204032918487       25.18856456988904
H           -0.52541063272993      -33.16424522505380       25.49274218806862
H           -0.91309661630443      -36.38166836647679       27.44594685838947
H            0.00547174525788      -37.35022354939160       26.27705503061095
H           -1.54044531045759      -36.65369870929580       25.81477540037410
H            0.97684833349135      -35.68587271175930       22.01420579688950
H            2.89319482460317      -33.81517532599598       18.99906398619332
H            4.23709562663142      -32.24118224182588       20.14929014590006

 Bond Distances (Angstroems)
 ---------------------------
C1-C2=1.5272         C1-H33=1.0872        C1-H34=1.0867        C1-H35=1.0852        C2-C1=1.5272         C2-O3=1.4262         
C2-C4=1.5341         C2-C5=1.5725         O3-C2=1.4262         O3-B9=1.3688         C4-C2=1.5341         C4-H36=1.0877        
C4-H37=1.0871        C4-H38=1.0858        C5-C2=1.5725         C5-C6=1.5272         C5-C7=1.5341         C5-O8=1.4269         
C6-C5=1.5272         C6-H39=1.0867        C6-H40=1.0851        C6-H41=1.0872        C7-C5=1.5341         C7-H42=1.0859        
C7-H43=1.0876        C7-H44=1.0871        O8-C5=1.4269         O8-B9=1.3682         B9-O3=1.3688         B9-O8=1.3682         
B9-C10=1.5567        C10-B9=1.5567        C10-C11=1.3575       C10-C27=1.5055       C11-C10=1.3575       C11-C12=1.4277       
C11-H45=1.0832       C12-C11=1.4277       C12-H13=1.0809       C12-C14=1.5069       C12-C31=1.7182       H13-C12=1.0809       
C14-C12=1.5069       C14-H15=1.0858       C14-C16=1.4852       C14-C31=1.5009       H15-C14=1.0858       C16-C14=1.4852       
C16-B17=1.5614       C16-C26=1.3345       B17-C16=1.5614       B17-O18=1.3685       B17-O25=1.3658       O18-B17=1.3685       
O18-C19=1.4271       C19-O18=1.4271       C19-C20=1.5269       C19-C21=1.5341       C19-C22=1.5720       C20-C19=1.5269       
C20-H46=1.0872       C20-H47=1.0866       C20-H48=1.0851       C21-C19=1.5341       C21-H49=1.0877       C21-H50=1.0871       
C21-H51=1.0858       C22-C19=1.5720       C22-C23=1.5339       C22-C24=1.5271       C22-O25=1.4275       C23-C22=1.5339       
C23-H52=1.0859       C23-H53=1.0875       C23-H54=1.0870       C24-C22=1.5271       C24-H55=1.0867       C24-H56=1.0851       
C24-H57=1.0871       O25-B17=1.3658       O25-C22=1.4275       C26-C16=1.3345       C26-C27=1.4910       C26-H58=1.0815       
C27-C10=1.5055       C27-C26=1.4910       C27-H28=1.0902       C27-C29=1.4893       H28-C27=1.0902       C29-C27=1.4893       
C29-C30=1.3439       C29-H59=1.0819       C30-C29=1.3439       C30-C31=1.4332       C30-H60=1.0836       C31-C12=1.7182       
C31-C14=1.5009       C31-C30=1.4332       C31-H32=1.0811       H32-C31=1.0811       H33-C1=1.0872        H34-C1=1.0867        
H35-C1=1.0852        H36-C4=1.0877        H37-C4=1.0871        H38-C4=1.0858        H39-C6=1.0867        H40-C6=1.0851        
H41-C6=1.0872        H42-C7=1.0859        H43-C7=1.0876        H44-C7=1.0871        H45-C11=1.0832       H46-C20=1.0872       
H47-C20=1.0866       H48-C20=1.0851       H49-C21=1.0877       H50-C21=1.0871       H51-C21=1.0858       H52-C23=1.0859       
H53-C23=1.0875       H54-C23=1.0870       H55-C24=1.0867       H56-C24=1.0851       H57-C24=1.0871       H58-C26=1.0815       
H59-C29=1.0819       H60-C30=1.0836       
 C  H  Rav=1.0858 sigma=0.0021  Rmin=1.0809  Rmax=1.0902    32
 C  B  Rav=1.5590 sigma=0.0024  Rmin=1.5567  Rmax=1.5614     2
 C  C  Rav=1.4992 sigma=0.0820  Rmin=1.3345  Rmax=1.7182    22
 O  B  Rav=1.3678 sigma=0.0012  Rmin=1.3658  Rmax=1.3688     4
 O  C  Rav=1.4269 sigma=0.0005  Rmin=1.4262  Rmax=1.4275     4

 selected bond angles (degree)
 --------------------
H33-C1-C2=108.89               H34-C1-C2=110.21               H34-C1-H33=108.88              H35-C1-C2=111.25               
H35-C1-H33=108.03              H35-C1-H34=109.52              O3-C2-C1=109.50                C4-C2-C1=109.06                
C4-C2-O3=106.84                C5-C2-C1=114.92                C5-C2-O3=103.13                C5-C2-C4=112.92                
B9-O3-C2=108.88                H36-C4-C2=108.51               H37-C4-C2=110.19               H37-C4-H36=107.98              
H38-C4-C2=111.24               H38-C4-H36=108.99              H38-C4-H37=109.86              C6-C5-C2=114.93                
C7-C5-C2=112.96                C7-C5-C6=109.06                O8-C5-C2=103.15                O8-C5-C6=109.43                
O8-C5-C7=106.83                H39-C6-C5=110.27               H40-C6-C5=111.18               H40-C6-H39=109.58              
H41-C6-C5=108.85               H41-C6-H39=108.89              H41-C6-H40=108.00              H42-C7-C5=111.26               
H43-C7-C5=108.42               H43-C7-H42=109.03              H44-C7-C5=110.25               H44-C7-H42=109.88              
H44-C7-H43=107.92              B9-O8-C5=108.86                O8-B9-O3=112.08                C10-B9-O3=123.97               
C10-B9-O8=123.95               C11-C10-B9=119.00              C27-C10-B9=117.49              C27-C10-C11=123.49             

 selected dihedral angles (degree)
 ---------------------------------
O3-C2-C1-H33=294.81           O3-C2-C1-H34=175.44           O3-C2-C1-H35= 53.77           C4-C2-C1-H33= 51.40           
C4-C2-C1-H34=292.03           C4-C2-C1-H35=170.35           C5-C2-C1-H33=179.33           C5-C2-C1-H34= 59.97           
C5-C2-C1-H35=298.29           B9-O3-C2-C1=220.99            B9-O3-C2-C4=103.02            B9-O3-C2-C5=343.78            
H36-C4-C2-C1=300.09           H36-C4-C2-O3= 58.36           H36-C4-C2-C5=171.04           H37-C4-C2-C1=182.07           
H37-C4-C2-O3=300.33           H37-C4-C2-C5= 53.02           H38-C4-C2-C1= 59.97           H38-C4-C2-O3=178.24           
H38-C4-C2-C5=290.92           C6-C5-C2-C1=257.59            C6-C5-C2-O3=138.49            C6-C5-C2-C4= 23.55            
C7-C5-C2-C1= 23.60            C7-C5-C2-O3=264.50            C7-C5-C2-C4=149.56            O8-C5-C2-C1=138.56            
O8-C5-C2-O3= 19.46            O8-C5-C2-C4=264.52            H39-C6-C5-C2= 59.83           H39-C6-C5-C7=291.83           
H39-C6-C5-O8=175.30           H40-C6-C5-C2=298.08           H40-C6-C5-C7=170.08           H40-C6-C5-O8= 53.55           
H41-C6-C5-C2=179.23           H41-C6-C5-C7= 51.23           H41-C6-C5-O8=294.70           H42-C7-C5-C2=290.30           
H42-C7-C5-C6= 59.40           H42-C7-C5-O8=177.57           H43-C7-C5-C2=170.41           H43-C7-C5-C6=299.51           
H43-C7-C5-O8= 57.68           H44-C7-C5-C2= 52.47           H44-C7-C5-C6=181.57           H44-C7-C5-O8=299.74           
B9-O8-C5-C2=343.88            B9-O8-C5-C6=221.11            B9-O8-C5-C7=103.18            O8-B9-O3-C2=  7.01            
C10-B9-O3-C2=187.23           O3-B9-O8-C5=  6.83            C10-B9-O8-C5=186.61           C11-C10-B9-O3=186.83          
C11-C10-B9-O8=  7.08          C27-C10-B9-O3=  4.98          C27-C10-B9-O8=185.23          
           -------------------------------------------------
          |                Final Singlepoint                |
           -------------------------------------------------

          ...................................................
          :                      SETUP                      :
          :.................................................:
          :  # basis functions                 144          :
          :  # atomic orbitals                 144          :
          :  # shells                           88          :
          :  # electrons                       150          :
          :  max. iterations                   250          :
          :  Hamiltonian                  GFN2-xTB          :
          :  restarted?                      false          :
          :  GBSA solvation                  false          :
          :  PC potential                    false          :
          :  electronic temp.          300.0000000     K    :
          :  accuracy                    1.0000000          :
          :  -> integral cutoff          0.2500000E+02      :
          :  -> integral neglect         0.1000000E-07      :
          :  -> SCF convergence          0.1000000E-05 Eh   :
          :  -> wf. convergence          0.1000000E-03 e    :
          :  Broyden damping             0.4000000          :
          ...................................................

 iter      E             dE          RMSdq      gap      omega  full diag
   1    -83.3883305 -0.833883E+02  0.438E-05    3.31       0.0  T
   2    -83.3883305 -0.581224E-11  0.307E-05    3.31     421.2  T
   3    -83.3883305 -0.173941E-10  0.193E-05    3.31     668.7  T

   *** convergence criteria satisfied after 3 iterations ***

         #    Occupation            Energy/Eh            Energy/eV
      -------------------------------------------------------------
         1        2.0000           -0.6878623             -18.7177
       ...           ...                  ...                  ...
        69        2.0000           -0.4067839             -11.0692
        70        2.0000           -0.3975881             -10.8189
        71        2.0000           -0.3961618             -10.7801
        72        2.0000           -0.3945548             -10.7364
        73        2.0000           -0.3856509             -10.4941
        74        2.0000           -0.3520914              -9.5809
        75        2.0000           -0.3464848              -9.4283 (HOMO)
        76                         -0.2248505              -6.1185 (LUMO)
        77                         -0.2112839              -5.7493
        78                         -0.1878955              -5.1129
        79                         -0.1048936              -2.8543
        80                         -0.0952826              -2.5928
       ...                                ...                  ...
       144                          0.6890917              18.7511
      -------------------------------------------------------------
                  HL-Gap            0.1216343 Eh            3.3098 eV
             Fermi-level           -0.2856677 Eh           -7.7734 eV

 SCC (total)                   0 d,  0 h,  0 min,  0.043 sec
 SCC setup                      ...        0 min,  0.000 sec (  0.552%)
 Dispersion                     ...        0 min,  0.000 sec (  0.903%)
 classical contributions        ...        0 min,  0.000 sec (  0.400%)
 integral evaluation            ...        0 min,  0.006 sec ( 13.922%)
 iterations                     ...        0 min,  0.008 sec ( 19.546%)
 molecular gradient             ...        0 min,  0.028 sec ( 63.879%)
 printout                       ...        0 min,  0.000 sec (  0.783%)

         :::::::::::::::::::::::::::::::::::::::::::::::::::::
         ::                     SUMMARY                     ::
         :::::::::::::::::::::::::::::::::::::::::::::::::::::
         :: total energy             -82.309188280121 Eh    ::
         :: gradient norm              0.000492699581 Eh/a0 ::
         :: HOMO-LUMO gap              3.309836507213 eV    ::
         ::.................................................::
         :: SCC energy               -83.388330462288 Eh    ::
         :: -> isotropic ES            0.147447425061 Eh    ::
         :: -> anisotropic ES          0.012189349778 Eh    ::
         :: -> anisotropic XC          0.026670324921 Eh    ::
         :: -> dispersion             -0.061588031637 Eh    ::
         :: repulsion energy           1.078305465655 Eh    ::
         :: add. restraining           0.000134942026 Eh    ::
         :: total charge              -0.000000000000 e     ::
         :::::::::::::::::::::::::::::::::::::::::::::::::::::

           -------------------------------------------------
          |                Property Printout                |
           -------------------------------------------------

    * Orbital Energies and Occupations

         #    Occupation            Energy/Eh            Energy/eV
      -------------------------------------------------------------
         1        2.0000           -0.6878623             -18.7177
       ...           ...                  ...                  ...
        63        2.0000           -0.4354380             -11.8489
        64        2.0000           -0.4330587             -11.7841
        65        2.0000           -0.4292351             -11.6801
        66        2.0000           -0.4199090             -11.4263
        67        2.0000           -0.4194740             -11.4145
        68        2.0000           -0.4139136             -11.2632
        69        2.0000           -0.4067839             -11.0692
        70        2.0000           -0.3975881             -10.8189
        71        2.0000           -0.3961618             -10.7801
        72        2.0000           -0.3945548             -10.7364
        73        2.0000           -0.3856509             -10.4941
        74        2.0000           -0.3520914              -9.5809
        75        2.0000           -0.3464848              -9.4283 (HOMO)
        76                         -0.2248505              -6.1185 (LUMO)
        77                         -0.2112839              -5.7493
        78                         -0.1878955              -5.1129
        79                         -0.1048936              -2.8543
        80                         -0.0952826              -2.5928
        81                         -0.0378135              -1.0290
        82                          0.0086187               0.2345
        83                          0.0111004               0.3021
        84                          0.0286198               0.7788
        85                          0.0298505               0.8123
        86                          0.0568789               1.5478
       ...                                ...                  ...
       144                          0.6890917              18.7511
      -------------------------------------------------------------
                  HL-Gap            0.1216343 Eh            3.3098 eV
             Fermi-level           -0.2856677 Eh           -7.7734 eV

     #   Z          covCN         q      C6AA      α(0)
     1   6 C        3.755    -0.117    22.791     6.807
     2   6 C        3.858     0.129    18.452     6.109
     3   8 O        1.638    -0.373    20.345     6.088
     4   6 C        3.755    -0.116    22.773     6.804
     5   6 C        3.858     0.129    18.449     6.109
     6   6 C        3.755    -0.117    22.801     6.809
     7   6 C        3.755    -0.116    22.770     6.804
     8   8 O        1.638    -0.374    20.366     6.092
     9   5 B        2.659     0.432    15.561     6.641
    10   6 C        3.046    -0.080    29.962     8.978
    11   6 C        2.894    -0.040    28.991     8.828
    12   6 C        3.801    -0.017    20.880     6.506
    13   1 H        0.926     0.031     2.567     2.506
    14   6 C        3.864    -0.012    20.748     6.478
    15   1 H        0.925     0.045     2.385     2.415
    16   6 C        2.863    -0.084    30.107     8.994
    17   5 B        2.662     0.432    15.555     6.639
    18   8 O        1.638    -0.373    20.347     6.089
    19   6 C        3.860     0.129    18.454     6.109
    20   6 C        3.755    -0.117    22.800     6.808
    21   6 C        3.755    -0.116    22.780     6.805
    22   6 C        3.860     0.129    18.456     6.110
    23   6 C        3.755    -0.116    22.786     6.806
    24   6 C        3.755    -0.118    22.808     6.810
    25   8 O        1.638    -0.370    20.279     6.079
    26   6 C        2.897    -0.026    28.654     8.777
    27   6 C        3.865    -0.014    20.782     6.483
    28   1 H        0.925     0.044     2.391     2.418
    29   6 C        3.073    -0.027    28.604     8.769
    30   6 C        2.889    -0.048    29.178     8.856
    31   6 C        3.803    -0.014    20.829     6.498
    32   1 H        0.926     0.031     2.569     2.506
    33   1 H        0.925     0.054     2.270     2.356
    34   1 H        0.925     0.039     2.460     2.453
    35   1 H        0.925     0.051     2.305     2.374
    36   1 H        0.925     0.052     2.297     2.370
    37   1 H        0.925     0.044     2.402     2.424
    38   1 H        0.925     0.042     2.424     2.435
    39   1 H        0.925     0.040     2.455     2.450
    40   1 H        0.925     0.052     2.297     2.370
    41   1 H        0.925     0.054     2.271     2.356
    42   1 H        0.925     0.042     2.419     2.432
    43   1 H        0.925     0.052     2.298     2.371
    44   1 H        0.925     0.043     2.408     2.427
    45   1 H        0.925     0.034     2.531     2.488
    46   1 H        0.925     0.054     2.270     2.356
    47   1 H        0.925     0.040     2.450     2.448
    48   1 H        0.925     0.052     2.294     2.368
    49   1 H        0.925     0.052     2.296     2.370
    50   1 H        0.925     0.044     2.399     2.422
    51   1 H        0.925     0.043     2.415     2.430
    52   1 H        0.925     0.043     2.412     2.429
    53   1 H        0.925     0.053     2.286     2.364
    54   1 H        0.925     0.044     2.397     2.421
    55   1 H        0.925     0.040     2.449     2.447
    56   1 H        0.925     0.052     2.293     2.368
    57   1 H        0.925     0.055     2.260     2.351
    58   1 H        0.925     0.037     2.488     2.467
    59   1 H        0.925     0.026     2.637     2.539
    60   1 H        0.925     0.022     2.703     2.571

 Mol. C6AA /au·bohr⁶  :      32802.093180
 Mol. C8AA /au·bohr⁸  :     759476.419550
 Mol. α(0) /au        :        273.185662


Wiberg/Mayer (AO) data.
largest (>0.10) Wiberg bond orders for each atom

 ---------------------------------------------------------------------------
     #   Z sym  total        # sym  WBO       # sym  WBO       # sym  WBO
 ---------------------------------------------------------------------------
     1   6 C    3.994 --     2 C    0.997    34 H    0.985    33 H    0.983
                            35 H    0.982
     2   6 C    3.944 --     1 C    0.997     4 C    0.991     3 O    0.954
                             5 C    0.936
     3   8 O    2.228 --     9 B    1.124     2 C    0.954
     4   6 C    3.994 --     2 C    0.991    38 H    0.984    37 H    0.984
                            36 H    0.983
     5   6 C    3.942 --     6 C    0.996     7 C    0.991     8 O    0.953
                             2 C    0.936
     6   6 C    3.994 --     5 C    0.996    39 H    0.985    41 H    0.983
                            40 H    0.982
     7   6 C    3.995 --     5 C    0.991    42 H    0.985    44 H    0.984
                            43 H    0.983
     8   8 O    2.228 --     9 B    1.124     5 C    0.953
     9   5 B    3.379 --     8 O    1.124     3 O    1.124    10 C    1.008
    10   6 C    3.966 --    11 C    1.660     9 B    1.008    27 C    0.947
                            29 C    0.135
    11   6 C    3.989 --    10 C    1.660    12 C    1.201    45 H    0.963
    12   6 C    3.944 --    11 C    1.201    13 H    0.974    14 C    0.923
                            31 C    0.693
    13   1 H    0.999 --    12 C    0.974
    14   6 C    3.966 --    16 C    1.025    15 H    0.968    31 C    0.939
                            12 C    0.923
    15   1 H    0.998 --    14 C    0.968
    16   6 C    3.978 --    26 C    1.834    14 C    1.025    17 B    0.997
    17   5 B    3.376 --    25 O    1.134    18 O    1.127    16 C    0.997
    18   8 O    2.232 --    17 B    1.127    19 C    0.953
    19   6 C    3.943 --    20 C    0.997    21 C    0.991    18 O    0.953
                            22 C    0.937
    20   6 C    3.994 --    19 C    0.997    47 H    0.984    46 H    0.983
                            48 H    0.982
    21   6 C    3.994 --    19 C    0.991    51 H    0.984    50 H    0.984
                            49 H    0.983
    22   6 C    3.942 --    24 C    0.996    23 C    0.991    25 O    0.952
                            19 C    0.937
    23   6 C    3.995 --    22 C    0.991    52 H    0.984    54 H    0.984
                            53 H    0.983
    24   6 C    3.994 --    22 C    0.996    55 H    0.985    57 H    0.983
                            56 H    0.982
    25   8 O    2.237 --    17 B    1.134    22 C    0.952
    26   6 C    3.987 --    16 C    1.834    27 C    1.009    58 H    0.967
    27   6 C    3.991 --    26 C    1.009    29 C    0.973    28 H    0.970
                            10 C    0.947
    28   1 H    0.998 --    27 C    0.970
    29   6 C    3.979 --    30 C    1.730    27 C    0.973    59 H    0.970
                            10 C    0.135
    30   6 C    3.988 --    29 C    1.730    31 C    1.176    60 H    0.965
    31   6 C    3.937 --    30 C    1.176    32 H    0.975    14 C    0.939
                            12 C    0.693
    32   1 H    0.999 --    31 C    0.975
    33   1 H    0.997 --     1 C    0.983
    34   1 H    0.998 --     1 C    0.985
    35   1 H    0.997 --     1 C    0.982
    36   1 H    0.997 --     4 C    0.983
    37   1 H    0.998 --     4 C    0.984
    38   1 H    0.998 --     4 C    0.984
    39   1 H    0.998 --     6 C    0.985
    40   1 H    0.997 --     6 C    0.982
    41   1 H    0.997 --     6 C    0.983
    42   1 H    0.998 --     7 C    0.985
    43   1 H    0.997 --     7 C    0.983
    44   1 H    0.998 --     7 C    0.984
    45   1 H    0.999 --    11 C    0.963
    46   1 H    0.997 --    20 C    0.983
    47   1 H    0.998 --    20 C    0.984
    48   1 H    0.997 --    20 C    0.982
    49   1 H    0.997 --    21 C    0.983
    50   1 H    0.998 --    21 C    0.984
    51   1 H    0.998 --    21 C    0.984
    52   1 H    0.998 --    23 C    0.984
    53   1 H    0.997 --    23 C    0.983
    54   1 H    0.998 --    23 C    0.984
    55   1 H    0.998 --    24 C    0.985
    56   1 H    0.997 --    24 C    0.982
    57   1 H    0.997 --    24 C    0.983
    58   1 H    0.999 --    26 C    0.967
    59   1 H    0.999 --    29 C    0.970
    60   1 H    0.999 --    30 C    0.965
 ---------------------------------------------------------------------------

Topologies differ in total number of bonds
Writing topology from bond orders to xtbtopo.mol

molecular dipole:
                 x           y           z       tot (Debye)
 q only:       -0.225      -0.433       0.225
   full:       -0.106      -0.513       0.178       1.406
molecular quadrupole (traceless):
                xx          xy          yy          xz          yz          zz
 q only:      -49.659      17.280      44.161     -23.789     -40.205       5.498
  q+dip:      -51.574       6.996      53.418     -16.484     -38.333      -1.844
   full:      -52.499       5.720      55.134     -18.004     -39.587      -2.635

           -------------------------------------------------
          |                Geometry Summary                 |
           -------------------------------------------------

      molecular mass/u    :      382.1099696
   center of mass at/Å    :        2.9499669     -35.9137989      21.8288729
  moments of inertia/u·Å² :        0.1293214E+04   0.6642933E+04   0.7020459E+04
rotational constants/cm⁻¹ :        0.1303545E-01   0.2537679E-02   0.2401215E-02

 * 59 selected distances

     #   Z          #   Z                                           value/Å
     1   6 C        2   6 C                                       1.5272126
     2   6 C        3   8 O                                       1.4262454
     2   6 C        4   6 C                                       1.5341320
     5   6 C        6   6 C                                       1.5272154
     5   6 C        7   6 C                                       1.5341107
     5   6 C        8   8 O                                       1.4269013
     3   8 O        9   5 B                                       1.3687607
     8   8 O        9   5 B                                       1.3682055
     9   5 B       10   6 C                                       1.5566792
    10   6 C       11   6 C                                       1.3575164
    11   6 C       12   6 C                                       1.4277440
    12   6 C       13   1 H                                       1.0809009 (min)
    12   6 C       14   6 C                                       1.5069431
    14   6 C       15   1 H                                       1.0858366
    14   6 C       16   6 C                                       1.4852223
    16   6 C       17   5 B                                       1.5613983 (max)
    17   5 B       18   8 O                                       1.3684805
    18   8 O       19   6 C                                       1.4270836
    19   6 C       20   6 C                                       1.5269227
    19   6 C       21   6 C                                       1.5340928
    22   6 C       23   6 C                                       1.5338949
    22   6 C       24   6 C                                       1.5270750
    17   5 B       25   8 O                                       1.3657620
    22   6 C       25   8 O                                       1.4275414
    16   6 C       26   6 C                                       1.3345079
    27   6 C       28   1 H                                       1.0901823
    27   6 C       29   6 C                                       1.4893269
    29   6 C       30   6 C                                       1.3439270
    14   6 C       31   6 C                                       1.5008570
    30   6 C       31   6 C                                       1.4332085
    31   6 C       32   1 H                                       1.0811251
     1   6 C       33   1 H                                       1.0872336
     1   6 C       34   1 H                                       1.0866566
     1   6 C       35   1 H                                       1.0851559
     4   6 C       36   1 H                                       1.0876845
     4   6 C       37   1 H                                       1.0871258
     4   6 C       38   1 H                                       1.0858221
     6   6 C       39   1 H                                       1.0866767
     6   6 C       40   1 H                                       1.0851005
     6   6 C       41   1 H                                       1.0871593
     7   6 C       42   1 H                                       1.0858644
     7   6 C       43   1 H                                       1.0876219
     7   6 C       44   1 H                                       1.0870753
    11   6 C       45   1 H                                       1.0831865
    20   6 C       46   1 H                                       1.0872176
    20   6 C       47   1 H                                       1.0866247
    20   6 C       48   1 H                                       1.0851312
    21   6 C       49   1 H                                       1.0876690
    21   6 C       50   1 H                                       1.0871331
    21   6 C       51   1 H                                       1.0857826
    23   6 C       52   1 H                                       1.0858916
    23   6 C       53   1 H                                       1.0875011
    23   6 C       54   1 H                                       1.0870055
    24   6 C       55   1 H                                       1.0866642
    24   6 C       56   1 H                                       1.0850670
    24   6 C       57   1 H                                       1.0871220
    26   6 C       58   1 H                                       1.0814550
    29   6 C       59   1 H                                       1.0818691
    30   6 C       60   1 H                                       1.0835525

 * 5 distinct bonds (by element types)

   Z      Z             #   av. dist./Å        max./Å        min./Å
   1 H    6 C          32     1.0858154     1.0901823     1.0809009
   5 B    6 C           2     1.5590388     1.5613983     1.5566792
   6 C    6 C          17     1.4778770     1.5341320     1.3345079
   5 B    8 O           4     1.3678022     1.3687607     1.3657620
   6 C    8 O           4     1.4269429     1.4275414     1.4262454


optimized geometry written to: xtbopt.xyz


           -------------------------------------------------
          | TOTAL ENERGY              -82.309188280121 Eh   |
          | GRADIENT NORM               0.000492699581 Eh/α |
          | HOMO-LUMO GAP               3.309836507213 eV   |
           -------------------------------------------------

------------------------------------------------------------------------
 * finished run on 2022/07/09 at 18:33:04.654     
------------------------------------------------------------------------
 total:
 * wall-time:     0 d,  0 h,  0 min,  2.429 sec
 *  cpu-time:     0 d,  0 h,  0 min,  2.425 sec
 * ratio c/w:     0.999 speedup
 SCF:
 * wall-time:     0 d,  0 h,  0 min,  0.069 sec
 *  cpu-time:     0 d,  0 h,  0 min,  0.069 sec
 * ratio c/w:     0.997 speedup
 ANC optimizer:
 * wall-time:     0 d,  0 h,  0 min,  2.347 sec
 *  cpu-time:     0 d,  0 h,  0 min,  2.343 sec
 * ratio c/w:     0.999 speedup

