      -----------------------------------------------------------      
     |                   =====================                   |     
     |                           x T B                           |     
     |                   =====================                   |     
     |                         S. Grimme                         |     
     |          Mulliken Center for Theoretical Chemistry        |     
     |                    University of Bonn                     |     
      -----------------------------------------------------------      

   * xtb version 6.5.0 (homebrew) compiled by 'nhattrup@GPGGRP-SHANNON.CHEME.CMU.EDU' on 

   xtb is free software: you can redistribute it and/or modify it under
   the terms of the GNU Lesser General Public License as published by
   the Free Software Foundation, either version 3 of the License, or
   (at your option) any later version.
   
   xtb is distributed in the hope that it will be useful,
   but WITHOUT ANY WARRANTY; without even the implied warranty of
   MERCHANTABILITY or FITNESS FOR A PARTICULAR PURPOSE.  See the
   GNU Lesser General Public License for more details.
   
   Cite this work as:
   * C. Bannwarth, E. Caldeweyher, S. Ehlert, A. Hansen, P. Pracht,
     J. Seibert, S. Spicher, S. Grimme, WIREs Comput. Mol. Sci., 2020, 11,
     e01493. DOI: 10.1002/wcms.1493
   
   for GFN2-xTB:
   * C. Bannwarth, S. Ehlert and S. Grimme., J. Chem. Theory Comput., 2019,
     15, 1652-1671. DOI: 10.1021/acs.jctc.8b01176
   for GFN1-xTB:
   * S. Grimme, C. Bannwarth, P. Shushkov, J. Chem. Theory Comput., 2017,
     13, 1989-2009. DOI: 10.1021/acs.jctc.7b00118
   for GFN0-xTB:
   * P. Pracht, E. Caldeweyher, S. Ehlert, S. Grimme, ChemRxiv, 2019, preprint.
     DOI: 10.26434/chemrxiv.8326202.v1
   for GFN-FF:
   * S. Spicher and S. Grimme, Angew. Chem. Int. Ed., 2020, 59, 15665-15673.
     DOI: 10.1002/anie.202004239
   
   for ALPB and GBSA implicit solvation:
   * S. Ehlert, M. Stahn, S. Spicher, S. Grimme, J. Chem. Theory Comput.,
     2021, 17, 4250-4261. DOI: 10.1021/acs.jctc.1c00471
   
   for DFT-D4:
   * E. Caldeweyher, C. Bannwarth and S. Grimme, J. Chem. Phys., 2017,
     147, 034112. DOI: 10.1063/1.4993215
   * E. Caldeweyher, S. Ehlert, A. Hansen, H. Neugebauer, S. Spicher,
     C. Bannwarth and S. Grimme, J. Chem. Phys., 2019, 150, 154122.
     DOI: 10.1063/1.5090222
   * E. Caldeweyher, J.-M. Mewes, S. Ehlert and S. Grimme, Phys. Chem. Chem. Phys.
     2020, 22, 8499-8512. DOI: 10.1039/D0CP00502A
   
   for sTDA-xTB:
   * S. Grimme and C. Bannwarth, J. Chem. Phys., 2016, 145, 054103.
     DOI: 10.1063/1.4959605
   
   in the mass-spec context:
   * V. Asgeirsson, C. Bauer and S. Grimme, Chem. Sci., 2017, 8, 4879.
     DOI: 10.1039/c7sc00601b
   * J. Koopman and S. Grimme, ACS Omega 2019, 4, 12, 15120-15133.
     DOI: 10.1021/acsomega.9b02011
   
   for metadynamics refer to:
   * S. Grimme, J. Chem. Theory Comput., 2019, 155, 2847-2862
     DOI: 10.1021/acs.jctc.9b00143
   
   for SPH calculations refer to:
   * S. Spicher and S. Grimme, J. Chem. Theory Comput., 2021, 17, 1701-1714
     DOI: 10.1021/acs.jctc.0c01306
   
   with help from (in alphabetical order)
   P. Atkinson, C. Bannwarth, F. Bohle, G. Brandenburg, E. Caldeweyher
   M. Checinski, S. Dohm, S. Ehlert, S. Ehrlich, I. Gerasimov, C. Hölzer
   A. Katbashev, J. Koopman, C. Lavigne, S. Lehtola, F. März, M. Müller,
   F. Musil, H. Neugebauer, J. Pisarek, C. Plett, P. Pracht, F. Pultar,
   J. Seibert, P. Shushkov, S. Spicher, M. Stahn, M. Steiner, T. Strunk,
   J. Stückrath, T. Rose, and J. Unsleber
   
 * started run on 2022/07/09 at 18:32:56.769     

           -------------------------------------------------
          |                Calculation Setup                |
           -------------------------------------------------

          program call               : /opt/homebrew/bin/xtb bvl_bpin2_scan_3-0_xtb.xyz --chrg 0 --uhf 0 --opt --input xcontrol_bvl_bpin2_scan_3-0_xtb
          coordinate file            : bvl_bpin2_scan_3-0_xtb.xyz
          omp threads                :                     1

   ID    Z sym.   atoms
    1    6 C      1, 2, 4-7, 10-12, 14, 16, 19-24, 26, 27, 29-31
    2    8 O      3, 8, 18, 25
    3    5 B      9, 17
    4    1 H      13, 15, 28, 32-60
constraining bond 12 31 to    1.8333000 Å, actual value:    1.7159181 Å
constraining bond 10 29 to    2.5000000 Å, actual value:    2.4989870 Å

           -------------------------------------------------
          |                 G F N 2 - x T B                 |
           -------------------------------------------------

        Reference                      10.1021/acs.jctc.8b01176
      * Hamiltonian:
        H0-scaling (s, p, d)           1.850000    2.230000    2.230000
        zeta-weighting                 0.500000
      * Dispersion:
        s8                             2.700000
        a1                             0.520000
        a2                             5.000000
        s9                             5.000000
      * Repulsion:
        kExp                           1.500000    1.000000
        rExp                           1.000000
      * Coulomb:
        alpha                          2.000000
        third order                    shell-resolved
        anisotropic                    true
        a3                             3.000000
        a5                             4.000000
        cn-shift                       1.200000
        cn-exp                         4.000000
        max-rad                        5.000000


          ...................................................
          :                      SETUP                      :
          :.................................................:
          :  # basis functions                 144          :
          :  # atomic orbitals                 144          :
          :  # shells                           88          :
          :  # electrons                       150          :
          :  max. iterations                   250          :
          :  Hamiltonian                  GFN2-xTB          :
          :  restarted?                      false          :
          :  GBSA solvation                  false          :
          :  PC potential                    false          :
          :  electronic temp.          300.0000000     K    :
          :  accuracy                    1.0000000          :
          :  -> integral cutoff          0.2500000E+02      :
          :  -> integral neglect         0.1000000E-07      :
          :  -> SCF convergence          0.1000000E-05 Eh   :
          :  -> wf. convergence          0.1000000E-03 e    :
          :  Broyden damping             0.4000000          :
          ...................................................

 iter      E             dE          RMSdq      gap      omega  full diag
   1    -82.9583711 -0.829584E+02  0.468E+00    3.20       0.0  T
   2    -83.3380363 -0.379665E+00  0.288E+00    2.93       1.0  T
   3    -83.3502132 -0.121769E-01  0.138E+00    3.15       1.0  T
   4    -83.3711655 -0.209523E-01  0.470E-01    3.09       1.0  T
   5    -83.3837735 -0.126081E-01  0.203E-01    3.11       1.0  T
   6    -83.3851130 -0.133943E-02  0.116E-01    3.12       1.0  T
   7    -83.3853558 -0.242835E-03  0.324E-02    3.11       1.0  T
   8    -83.3853857 -0.299416E-04  0.120E-02    3.12       1.1  T
   9    -83.3853894 -0.369819E-05  0.541E-03    3.12       2.4  T
  10    -83.3853900 -0.592612E-06  0.260E-03    3.12       5.0  T
  11    -83.3853902 -0.137431E-06  0.728E-04    3.12      17.7  T
  12    -83.3853902 -0.241004E-07  0.314E-04    3.12      41.1  T

   *** convergence criteria satisfied after 12 iterations ***

         #    Occupation            Energy/Eh            Energy/eV
      -------------------------------------------------------------
         1        2.0000           -0.6883327             -18.7305
       ...           ...                  ...                  ...
        69        2.0000           -0.4054516             -11.0329
        70        2.0000           -0.3979881             -10.8298
        71        2.0000           -0.3954043             -10.7595
        72        2.0000           -0.3948365             -10.7440
        73        2.0000           -0.3900297             -10.6132
        74        2.0000           -0.3580156              -9.7421
        75        2.0000           -0.3412957              -9.2871 (HOMO)
        76                         -0.2268063              -6.1717 (LUMO)
        77                         -0.2169174              -5.9026
        78                         -0.1900825              -5.1724
        79                         -0.1038864              -2.8269
        80                         -0.0970650              -2.6413
       ...                                ...                  ...
       144                          0.6734756              18.3262
      -------------------------------------------------------------
                  HL-Gap            0.1144895 Eh            3.1154 eV
             Fermi-level           -0.2840510 Eh           -7.7294 eV

 SCC (total)                   0 d,  0 h,  0 min,  0.068 sec
 SCC setup                      ...        0 min,  0.000 sec (  0.400%)
 Dispersion                     ...        0 min,  0.000 sec (  0.679%)
 classical contributions        ...        0 min,  0.000 sec (  0.262%)
 integral evaluation            ...        0 min,  0.006 sec (  8.957%)
 iterations                     ...        0 min,  0.033 sec ( 48.859%)
 molecular gradient             ...        0 min,  0.028 sec ( 40.324%)
 printout                       ...        0 min,  0.000 sec (  0.513%)

         :::::::::::::::::::::::::::::::::::::::::::::::::::::
         ::                     SUMMARY                     ::
         :::::::::::::::::::::::::::::::::::::::::::::::::::::
         :: total energy             -82.213058431800 Eh    ::
         :: gradient norm              1.187696547399 Eh/a0 ::
         :: HOMO-LUMO gap              3.115416617571 eV    ::
         ::.................................................::
         :: SCC energy               -83.385390191030 Eh    ::
         :: -> isotropic ES            0.147415797396 Eh    ::
         :: -> anisotropic ES          0.012634949752 Eh    ::
         :: -> anisotropic XC          0.026942435068 Eh    ::
         :: -> dispersion             -0.061089418749 Eh    ::
         :: repulsion energy           1.073111754182 Eh    ::
         :: add. restraining           0.098415205931 Eh    ::
         :: total charge              -0.000000000000 e     ::
         :::::::::::::::::::::::::::::::::::::::::::::::::::::

      ----------------------------------------------------------- 
     |                   =====================                   |
     |                        A N C O P T                        |
     |                   =====================                   |
     |               Approximate Normal Coordinate               |
     |                Rational Function Optimizer                |
      ----------------------------------------------------------- 

          ...................................................
          :                      SETUP                      :
          :.................................................:
          :   optimization level            normal          :
          :   max. optcycles                   200          :
          :   ANC micro-cycles                  20          :
          :   degrees of freedom               174          :
          :.................................................:
          :   RF solver                   davidson          :
          :   write xtbopt.log                true          :
          :   linear?                        false          :
          :   energy convergence         0.5000000E-05 Eh   :
          :   grad. convergence          0.1000000E-02 Eh/α :
          :   maximium RF displ.         1.0000000          :
          :   Hlow (freq-cutoff)         0.1000000E-01      :
          :   Hmax (freq-cutoff)         5.0000000          :
          :   S6 in model hess.         20.0000000          :
          ...................................................

generating ANC from model Hessian ...
Using Lindh-Hessian (1995)
 Shifting diagonal of input Hessian by   0.24815342234704305     
 Lowest  eigenvalues of input Hessian
    0.010000    0.130768    0.000000    0.000000    0.000000    0.000000
    0.000000    0.000000    0.248236    0.248288    0.248392    0.249487
    0.250074    0.250260    0.251423    0.251470    0.252809    0.253269
 Highest eigenvalues
    1.958531    2.118361    2.128998    2.157939    8.965928    9.212118


........................................................................
.............................. CYCLE    1 ..............................
........................................................................
   1    -83.3853902 -0.833854E+02  0.167E-04    3.12       0.0  T
   2    -83.3853902 -0.172926E-08  0.953E-05    3.12     135.5  T
   3    -83.3853902 -0.535564E-09  0.338E-05    3.12     381.9  T
     SCC iter.                  ...        0 min,  0.009 sec
     gradient                   ...        0 min,  0.027 sec
 * total energy  :   -82.2130584 Eh     change       -0.1210182E-08 Eh
   gradient norm :     1.1876963 Eh/α   predicted     0.0000000E+00 (-100.00%)
   displ. norm   :     0.2318764 α      lambda       -0.2707033E+00
   maximum displ.:     0.2231145 α      in ANC's #173, #174, #163, ...

........................................................................
.............................. CYCLE    2 ..............................
........................................................................
   1    -83.3732073 -0.833732E+02  0.238E-01    2.54       0.0  T
   2    -83.3732173 -0.997850E-05  0.139E-01    2.54       1.0  T
   3    -83.3728334  0.383897E-03  0.829E-02    2.54       1.0  T
   4    -83.3732610 -0.427579E-03  0.763E-03    2.55       1.7  T
   5    -83.3732629 -0.196242E-05  0.415E-03    2.55       3.1  T
   6    -83.3732633 -0.361030E-06  0.190E-03    2.55       6.8  T
   7    -83.3732634 -0.818660E-07  0.592E-04    2.55      21.8  T
   8    -83.3732634 -0.245505E-08  0.379E-04    2.55      34.1  T
     SCC iter.                  ...        0 min,  0.022 sec
     gradient                   ...        0 min,  0.027 sec
 * total energy  :   -82.2721300 Eh     change       -0.5907158E-01 Eh
   gradient norm :     0.6732960 Eh/α   predicted    -0.1426292E+00 ( 141.45%)
   displ. norm   :     0.0826656 α      lambda       -0.5478837E-01
   maximum displ.:     0.0804029 α      in ANC's #173, #174, #69, ...

........................................................................
.............................. CYCLE    3 ..............................
........................................................................
   1    -83.3754019 -0.833754E+02  0.887E-02    2.76       0.0  T
   2    -83.3754111 -0.912715E-05  0.547E-02    2.76       1.0  T
   3    -83.3753833  0.277803E-04  0.233E-02    2.76       1.0  T
   4    -83.3754137 -0.304446E-04  0.518E-03    2.76       2.5  T
   5    -83.3754154 -0.166248E-05  0.159E-03    2.76       8.1  T
   6    -83.3754154 -0.425187E-07  0.100E-03    2.76      12.9  T
   7    -83.3754155 -0.308537E-07  0.238E-04    2.76      54.3  T
   8    -83.3754155 -0.881954E-09  0.905E-05    2.76     142.6  T
     SCC iter.                  ...        0 min,  0.022 sec
     gradient                   ...        0 min,  0.028 sec
 * total energy  :   -82.3001579 Eh     change       -0.2802790E-01 Eh
   gradient norm :     0.0230764 Eh/α   predicted    -0.2758246E-01 (  -1.59%)
   displ. norm   :     0.0210325 α      lambda       -0.3379048E-03
   maximum displ.:     0.0065831 α      in ANC's #124, #111, #117, ...

........................................................................
.............................. CYCLE    4 ..............................
........................................................................
   1    -83.3744529 -0.833745E+02  0.153E-02    2.75       0.0  T
   2    -83.3744542 -0.128746E-05  0.988E-03    2.75       1.3  T
   3    -83.3744538  0.359831E-06  0.453E-03    2.75       2.9  T
   4    -83.3744544 -0.530984E-06  0.157E-03    2.75       8.2  T
   5    -83.3744545 -0.138784E-06  0.238E-04    2.75      54.3  T
   6    -83.3744545 -0.161094E-09  0.134E-04    2.75      96.4  T
     SCC iter.                  ...        0 min,  0.017 sec
     gradient                   ...        0 min,  0.028 sec
 * total energy  :   -82.3004447 Eh     change       -0.2867900E-03 Eh
   gradient norm :     0.0117918 Eh/α   predicted    -0.1853912E-03 ( -35.36%)
   displ. norm   :     0.0880115 α      lambda       -0.3982389E-03
   maximum displ.:     0.0790866 α      in ANC's #1, #38, #111, ...

........................................................................
.............................. CYCLE    5 ..............................
........................................................................
   1    -83.3724837 -0.833725E+02  0.606E-02    2.73       0.0  T
   2    -83.3724887 -0.499440E-05  0.367E-02    2.73       1.0  T
   3    -83.3724803  0.848222E-05  0.272E-02    2.73       1.0  T
   4    -83.3725036 -0.233273E-04  0.226E-03    2.73       5.7  T
   5    -83.3725039 -0.358301E-06  0.902E-04    2.73      14.3  T
   6    -83.3725040 -0.415427E-07  0.446E-04    2.73      29.0  T
     SCC iter.                  ...        0 min,  0.017 sec
     gradient                   ...        0 min,  0.028 sec
 * total energy  :   -82.3002773 Eh     change        0.1674425E-03 Eh
   gradient norm :     0.0142752 Eh/α   predicted    -0.1999314E-03 (-219.40%)
   displ. norm   :     0.1553953 α      lambda       -0.1282888E-02
   maximum displ.:     0.1412919 α      in ANC's #1, #38, #111, ...

........................................................................
.............................. CYCLE    6 ..............................
........................................................................
   1    -83.3702189 -0.833702E+02  0.106E-01    2.72       0.0  T
   2    -83.3702376 -0.187062E-04  0.651E-02    2.72       1.0  T
   3    -83.3702434 -0.585585E-05  0.485E-02    2.72       1.0  T
   4    -83.3703066 -0.631397E-04  0.417E-03    2.72       3.1  T
   5    -83.3703075 -0.901974E-06  0.152E-03    2.72       8.5  T
   6    -83.3703076 -0.907190E-07  0.773E-04    2.72      16.7  T
   7    -83.3703076 -0.157698E-07  0.329E-04    2.72      39.3  T
     SCC iter.                  ...        0 min,  0.019 sec
     gradient                   ...        0 min,  0.028 sec
 * total energy  :   -82.2997351 Eh     change        0.5421526E-03 Eh
   gradient norm :     0.0334393 Eh/α   predicted    -0.6519926E-03 (-220.26%)
   displ. norm   :     0.0884447 α      lambda       -0.3713080E-02
   maximum displ.:     0.0532639 α      in ANC's #1, #111, #117, ...

........................................................................
.............................. CYCLE    7 ..............................
........................................................................
   1    -83.3741273 -0.833741E+02  0.627E-02    2.75       0.0  T
   2    -83.3741425 -0.152637E-04  0.393E-02    2.75       1.0  T
   3    -83.3741373  0.521485E-05  0.267E-02    2.75       1.0  T
   4    -83.3741566 -0.192859E-04  0.442E-03    2.75       2.9  T
   5    -83.3741578 -0.117764E-05  0.855E-04    2.75      15.1  T
   6    -83.3741578 -0.545471E-08  0.506E-04    2.75      25.5  T
   7    -83.3741578 -0.619717E-08  0.276E-04    2.75      46.7  T
     SCC iter.                  ...        0 min,  0.019 sec
     gradient                   ...        0 min,  0.028 sec
 * total energy  :   -82.3006135 Eh     change       -0.8784314E-03 Eh
   gradient norm :     0.0081056 Eh/α   predicted    -0.9825033E-03 (  11.85%)
   displ. norm   :     0.0235425 α      lambda       -0.2192306E-03
   maximum displ.:     0.0186323 α      in ANC's #1, #38, #37, ...

........................................................................
.............................. CYCLE    8 ..............................
........................................................................
   1    -83.3738155 -0.833738E+02  0.158E-02    2.74       0.0  T
   2    -83.3738159 -0.347928E-06  0.959E-03    2.74       1.3  T
   3    -83.3738149  0.907245E-06  0.695E-03    2.74       1.9  T
   4    -83.3738166 -0.167313E-05  0.750E-04    2.74      17.2  T
   5    -83.3738167 -0.413759E-07  0.296E-04    2.74      43.7  T
   6    -83.3738167 -0.497758E-08  0.116E-04    2.74     110.9  T
     SCC iter.                  ...        0 min,  0.016 sec
     gradient                   ...        0 min,  0.028 sec
 * total energy  :   -82.3006472 Eh     change       -0.3363378E-04 Eh
   gradient norm :     0.0051580 Eh/α   predicted    -0.3849941E-04 (  14.47%)
   displ. norm   :     0.0067546 α      lambda       -0.4894810E-04
   maximum displ.:     0.0032417 α      in ANC's #38, #1, #37, ...

........................................................................
.............................. CYCLE    9 ..............................
........................................................................
   1    -83.3739625 -0.833740E+02  0.391E-03    2.74       0.0  T
   2    -83.3739625 -0.714402E-08  0.233E-03    2.74       5.5  T
   3    -83.3739624  0.100748E-06  0.168E-03    2.74       7.7  T
   4    -83.3739625 -0.130524E-06  0.181E-04    2.74      71.5  T
   5    -83.3739625 -0.168852E-08  0.638E-05    2.74     202.4  T
     SCC iter.                  ...        0 min,  0.014 sec
     gradient                   ...        0 min,  0.027 sec
 * total energy  :   -82.3006578 Eh     change       -0.1063139E-04 Eh
   gradient norm :     0.0019250 Eh/α   predicted    -0.6371954E-05 ( -40.06%)
   displ. norm   :     0.0371239 α      lambda       -0.1599388E-03
   maximum displ.:     0.0187039 α      in ANC's #38, #37, #32, ...

........................................................................
.............................. CYCLE   10 ..............................
........................................................................
   1    -83.3747864 -0.833748E+02  0.194E-02    2.74       0.0  T
   2    -83.3747866 -0.191272E-06  0.115E-02    2.74       1.1  T
   3    -83.3747847  0.181228E-05  0.632E-03    2.74       2.0  T
   4    -83.3747868 -0.209094E-05  0.661E-04    2.74      19.5  T
   5    -83.3747869 -0.213054E-07  0.272E-04    2.74      47.5  T
   6    -83.3747869 -0.142317E-08  0.184E-04    2.74      70.0  T
     SCC iter.                  ...        0 min,  0.016 sec
     gradient                   ...        0 min,  0.028 sec
 * total energy  :   -82.3006829 Eh     change       -0.2506114E-04 Eh
   gradient norm :     0.0073525 Eh/α   predicted    -0.1663059E-04 ( -33.64%)
   displ. norm   :     0.0123243 α      lambda       -0.7313298E-04
   maximum displ.:     0.0054193 α      in ANC's #38, #1, #32, ...

........................................................................
.............................. CYCLE   11 ..............................
........................................................................
   1    -83.3748589 -0.833749E+02  0.563E-03    2.74       0.0  T
   2    -83.3748590 -0.172767E-07  0.340E-03    2.74       3.8  T
   3    -83.3748588  0.183870E-06  0.224E-03    2.74       5.8  T
   4    -83.3748590 -0.233507E-06  0.131E-04    2.74      98.8  T
   5    -83.3748590 -0.516266E-09  0.584E-05    2.74     221.1  T
     SCC iter.                  ...        0 min,  0.014 sec
     gradient                   ...        0 min,  0.028 sec
 * total energy  :   -82.3006929 Eh     change       -0.1007600E-04 Eh
   gradient norm :     0.0049394 Eh/α   predicted    -0.6264200E-05 ( -37.83%)
   displ. norm   :     0.0246287 α      lambda       -0.1539975E-03
   maximum displ.:     0.0098499 α      in ANC's #38, #19, #16, ...

........................................................................
.............................. CYCLE   12 ..............................
........................................................................
   1    -83.3748941 -0.833749E+02  0.101E-02    2.75       0.0  T
   2    -83.3748941 -0.549876E-07  0.606E-03    2.75       2.1  T
   3    -83.3748936  0.526344E-06  0.346E-03    2.75       3.7  T
   4    -83.3748942 -0.616408E-06  0.275E-04    2.75      46.9  T
   5    -83.3748942 -0.256921E-08  0.112E-04    2.75     115.2  T
     SCC iter.                  ...        0 min,  0.014 sec
     gradient                   ...        0 min,  0.028 sec
 * total energy  :   -82.3007049 Eh     change       -0.1193104E-04 Eh
   gradient norm :     0.0023584 Eh/α   predicted    -0.9846460E-05 ( -17.47%)
   displ. norm   :     0.0128239 α      lambda       -0.5567511E-04
   maximum displ.:     0.0046975 α      in ANC's #19, #16, #13, ...

........................................................................
.............................. CYCLE   13 ..............................
........................................................................
   1    -83.3748127 -0.833748E+02  0.500E-03    2.75       0.0  T
   2    -83.3748128 -0.109456E-07  0.302E-03    2.75       4.3  T
   3    -83.3748126  0.104200E-06  0.145E-03    2.75       8.9  T
   4    -83.3748128 -0.115916E-06  0.160E-04    2.75      80.7  T
   5    -83.3748128 -0.967802E-09  0.728E-05    2.75     177.4  T
     SCC iter.                  ...        0 min,  0.014 sec
     gradient                   ...        0 min,  0.028 sec
 * total energy  :   -82.3007102 Eh     change       -0.5338968E-05 Eh
   gradient norm :     0.0029845 Eh/α   predicted    -0.3163547E-05 ( -40.75%)
   displ. norm   :     0.0337985 α      lambda       -0.1955518E-03
   maximum displ.:     0.0128895 α      in ANC's #19, #16, #13, ...

........................................................................
.............................. CYCLE   14 ..............................
........................................................................
   1    -83.3745095 -0.833745E+02  0.132E-02    2.75       0.0  T
   2    -83.3745095 -0.572294E-07  0.794E-03    2.75       1.6  T
   3    -83.3745090  0.530147E-06  0.307E-03    2.75       4.2  T
   4    -83.3745096 -0.568700E-06  0.455E-04    2.75      28.4  T
   5    -83.3745096 -0.100314E-07  0.178E-04    2.75      72.5  T
     SCC iter.                  ...        0 min,  0.014 sec
     gradient                   ...        0 min,  0.028 sec
 * total energy  :   -82.3007222 Eh     change       -0.1193628E-04 Eh
   gradient norm :     0.0027163 Eh/α   predicted    -0.9089898E-05 ( -23.85%)
   displ. norm   :     0.0193685 α      lambda       -0.9717032E-04
   maximum displ.:     0.0075047 α      in ANC's #16, #19, #13, ...

........................................................................
.............................. CYCLE   15 ..............................
........................................................................
   1    -83.3743551 -0.833744E+02  0.734E-03    2.75       0.0  T
   2    -83.3743551 -0.134707E-07  0.438E-03    2.75       2.9  T
   3    -83.3743550  0.956113E-07  0.123E-03    2.75      10.5  T
   4    -83.3743551 -0.101449E-06  0.235E-04    2.75      54.9  T
   5    -83.3743551 -0.270158E-08  0.914E-05    2.75     141.2  T
     SCC iter.                  ...        0 min,  0.014 sec
     gradient                   ...        0 min,  0.027 sec
 * total energy  :   -82.3007284 Eh     change       -0.6240136E-05 Eh
   gradient norm :     0.0015801 Eh/α   predicted    -0.4140681E-05 ( -33.64%)
   displ. norm   :     0.0339172 α      lambda       -0.1269779E-03
   maximum displ.:     0.0131507 α      in ANC's #16, #13, #19, ...

........................................................................
.............................. CYCLE   16 ..............................
........................................................................
   1    -83.3742224 -0.833742E+02  0.116E-02    2.75       0.0  T
   2    -83.3742225 -0.354944E-07  0.697E-03    2.75       1.9  T
   3    -83.3742221  0.397648E-06  0.260E-03    2.75       5.0  T
   4    -83.3742225 -0.433980E-06  0.335E-04    2.75      38.5  T
   5    -83.3742225 -0.331947E-08  0.197E-04    2.75      65.6  T
     SCC iter.                  ...        0 min,  0.014 sec
     gradient                   ...        0 min,  0.028 sec
 * total energy  :   -82.3007372 Eh     change       -0.8793356E-05 Eh
   gradient norm :     0.0023664 Eh/α   predicted    -0.4989271E-05 ( -43.26%)
   displ. norm   :     0.0114930 α      lambda       -0.8954410E-04
   maximum displ.:     0.0044116 α      in ANC's #13, #16, #19, ...

........................................................................
.............................. CYCLE   17 ..............................
........................................................................
   1    -83.3742792 -0.833743E+02  0.346E-03    2.75       0.0  T
   2    -83.3742792 -0.396855E-08  0.208E-03    2.75       6.2  T
   3    -83.3742791  0.394147E-07  0.904E-04    2.75      14.3  T
   4    -83.3742792 -0.445530E-07  0.792E-05    2.75     162.9  T
     SCC iter.                  ...        0 min,  0.011 sec
     gradient                   ...        0 min,  0.028 sec
 * total energy  :   -82.3007430 Eh     change       -0.5829455E-05 Eh
   gradient norm :     0.0024105 Eh/α   predicted    -0.3268313E-05 ( -43.93%)
   displ. norm   :     0.0482135 α      lambda       -0.3653659E-03
   maximum displ.:     0.0188740 α      in ANC's #13, #16, #19, ...

........................................................................
.............................. CYCLE   18 ..............................
........................................................................
   1    -83.3743993 -0.833744E+02  0.140E-02    2.74       0.0  T
   2    -83.3743993 -0.451072E-07  0.841E-03    2.75       1.5  T
   3    -83.3743988  0.538819E-06  0.315E-03    2.75       4.1  T
   4    -83.3743994 -0.598735E-06  0.321E-04    2.75      40.2  T
   5    -83.3743994 -0.109540E-08  0.211E-04    2.75      61.2  T
     SCC iter.                  ...        0 min,  0.014 sec
     gradient                   ...        0 min,  0.027 sec
 * total energy  :   -82.3007568 Eh     change       -0.1379944E-04 Eh
   gradient norm :     0.0016280 Eh/α   predicted    -0.1189351E-04 ( -13.81%)
   displ. norm   :     0.0280500 α      lambda       -0.7392235E-04
   maximum displ.:     0.0111247 α      in ANC's #13, #16, #7, ...

........................................................................
.............................. CYCLE   19 ..............................
........................................................................
   1    -83.3743306 -0.833743E+02  0.784E-03    2.75       0.0  T
   2    -83.3743306 -0.102320E-07  0.469E-03    2.75       2.8  T
   3    -83.3743304  0.191685E-06  0.189E-03    2.75       6.8  T
   4    -83.3743306 -0.210950E-06  0.172E-04    2.75      75.1  T
   5    -83.3743306 -0.490104E-09  0.107E-04    2.75     121.1  T
     SCC iter.                  ...        0 min,  0.014 sec
     gradient                   ...        0 min,  0.028 sec
 * total energy  :   -82.3007616 Eh     change       -0.4810446E-05 Eh
   gradient norm :     0.0010555 Eh/α   predicted    -0.2286335E-05 ( -52.47%)
   displ. norm   :     0.0214635 α      lambda       -0.9333620E-04
   maximum displ.:     0.0085602 α      in ANC's #7, #13, #16, ...

........................................................................
.............................. CYCLE   20 ..............................
........................................................................
   1    -83.3741569 -0.833742E+02  0.635E-03    2.75       0.0  T
   2    -83.3741569 -0.180796E-07  0.386E-03    2.75       3.3  T
   3    -83.3741567  0.208445E-06  0.210E-03    2.75       6.2  T
   4    -83.3741569 -0.237117E-06  0.192E-04    2.75      67.1  T
   5    -83.3741569 -0.675215E-09  0.115E-04    2.75     112.2  T
     SCC iter.                  ...        0 min,  0.014 sec
     gradient                   ...        0 min,  0.028 sec
 * total energy  :   -82.3007671 Eh     change       -0.5505343E-05 Eh
   gradient norm :     0.0012385 Eh/α   predicted    -0.2573700E-05 ( -53.25%)
   displ. norm   :     0.0262313 α      lambda       -0.8158304E-04
   maximum displ.:     0.0111462 α      in ANC's #7, #13, #16, ...
 * RMSD in coord.:     0.0454769 α      energy gain  -0.8770870E-01 Eh

generating ANC from model Hessian ...
Using Lindh-Hessian (1995)
 Shifting diagonal of input Hessian by    1.0235921666067547E-002
 Lowest  eigenvalues of input Hessian
    0.010000    0.000000    0.000000    0.000000    0.000000    0.000000
    0.000000    0.010320    0.010359    0.010378    0.011060    0.011932
    0.012337    0.013410    0.013544    0.013592    0.015335    0.015392
 Highest eigenvalues
    1.720009    1.887862    1.895551    1.928723    8.701485    8.837352


........................................................................
.............................. CYCLE   21 ..............................
........................................................................
   1    -83.3739864 -0.833740E+02  0.706E-03    2.75       0.0  T
   2    -83.3739864 -0.157104E-07  0.426E-03    2.75       3.0  T
   3    -83.3739863  0.135184E-06  0.163E-03    2.75       7.9  T
   4    -83.3739864 -0.150264E-06  0.171E-04    2.75      75.7  T
   5    -83.3739864 -0.536716E-09  0.882E-05    2.75     146.3  T
     SCC iter.                  ...        0 min,  0.014 sec
     gradient                   ...        0 min,  0.028 sec
 * total energy  :   -82.3007720 Eh     change       -0.4832673E-05 Eh
   gradient norm :     0.0013021 Eh/α   predicted     0.0000000E+00 (-100.00%)
   displ. norm   :     0.0457432 α      lambda       -0.1058556E-05
   maximum displ.:     0.0222827 α      in ANC's #1, #27, #6, ...

........................................................................
.............................. CYCLE   22 ..............................
........................................................................
   1    -83.3740017 -0.833740E+02  0.129E-02    2.75       0.0  T
   2    -83.3740017 -0.362077E-07  0.775E-03    2.75       1.7  T
   3    -83.3740013  0.459195E-06  0.299E-03    2.75       4.3  T
   4    -83.3740018 -0.507468E-06  0.284E-04    2.75      45.5  T
   5    -83.3740018 -0.118261E-08  0.173E-04    2.75      74.6  T
     SCC iter.                  ...        0 min,  0.014 sec
     gradient                   ...        0 min,  0.028 sec
 * total energy  :   -82.3007890 Eh     change       -0.1707185E-04 Eh
   gradient norm :     0.0016262 Eh/α   predicted    -0.8415970E-05 ( -50.70%)
   displ. norm   :     0.0759973 α      lambda       -0.1444218E-04
   maximum displ.:     0.0407887 α      in ANC's #1, #2, #6, ...

........................................................................
.............................. CYCLE   23 ..............................
........................................................................
   1    -83.3740846 -0.833741E+02  0.139E-02    2.75       0.0  T
   2    -83.3740846 -0.342768E-07  0.836E-03    2.75       1.5  T
   3    -83.3740837  0.940529E-06  0.408E-03    2.75       3.2  T
   4    -83.3740847 -0.102835E-05  0.397E-04    2.75      32.5  T
   5    -83.3740847 -0.492835E-08  0.217E-04    2.75      59.5  T
   6    -83.3740847 -0.141630E-08  0.107E-04    2.75     120.3  T
     SCC iter.                  ...        0 min,  0.016 sec
     gradient                   ...        0 min,  0.028 sec
 * total energy  :   -82.3008042 Eh     change       -0.1517438E-04 Eh
   gradient norm :     0.0020712 Eh/α   predicted    -0.7266459E-05 ( -52.11%)
   displ. norm   :     0.0694068 α      lambda       -0.1391065E-04
   maximum displ.:     0.0371558 α      in ANC's #1, #2, #5, ...

........................................................................
.............................. CYCLE   24 ..............................
........................................................................
   1    -83.3740548 -0.833741E+02  0.919E-03    2.75       0.0  T
   2    -83.3740548 -0.198290E-07  0.552E-03    2.75       2.3  T
   3    -83.3740545  0.300700E-06  0.228E-03    2.75       5.7  T
   4    -83.3740548 -0.328585E-06  0.271E-04    2.75      47.7  T
   5    -83.3740548 -0.190005E-08  0.164E-04    2.75      78.8  T
     SCC iter.                  ...        0 min,  0.014 sec
     gradient                   ...        0 min,  0.027 sec
 * total energy  :   -82.3008152 Eh     change       -0.1099291E-04 Eh
   gradient norm :     0.0020940 Eh/α   predicted    -0.6997765E-05 ( -36.34%)
   displ. norm   :     0.1140637 α      lambda       -0.1924974E-04
   maximum displ.:     0.0594906 α      in ANC's #1, #2, #5, ...

........................................................................
.............................. CYCLE   25 ..............................
........................................................................
   1    -83.3739951 -0.833740E+02  0.131E-02    2.75       0.0  T
   2    -83.3739952 -0.350304E-07  0.786E-03    2.75       1.6  T
   3    -83.3739948  0.353195E-06  0.256E-03    2.75       5.0  T
   4    -83.3739952 -0.393197E-06  0.333E-04    2.75      38.7  T
   5    -83.3739952 -0.564270E-09  0.229E-04    2.75      56.3  T
     SCC iter.                  ...        0 min,  0.014 sec
     gradient                   ...        0 min,  0.028 sec
 * total energy  :   -82.3008311 Eh     change       -0.1592888E-04 Eh
   gradient norm :     0.0014865 Eh/α   predicted    -0.9751215E-05 ( -38.78%)
   displ. norm   :     0.2547802 α      lambda       -0.2536503E-04
   maximum displ.:     0.1317765 α      in ANC's #1, #2, #4, ...

........................................................................
.............................. CYCLE   26 ..............................
........................................................................
   1    -83.3737785 -0.833738E+02  0.288E-02    2.75       0.0  T
   2    -83.3737787 -0.127725E-06  0.172E-02    2.75       1.0  T
   3    -83.3737781  0.605884E-06  0.349E-03    2.75       3.7  T
   4    -83.3737788 -0.705332E-06  0.649E-04    2.75      19.9  T
   5    -83.3737788 -0.233165E-08  0.352E-04    2.75      36.7  T
     SCC iter.                  ...        0 min,  0.014 sec
     gradient                   ...        0 min,  0.028 sec
 * total energy  :   -82.3008576 Eh     change       -0.2642356E-04 Eh
   gradient norm :     0.0012601 Eh/α   predicted    -0.1304902E-04 ( -50.62%)
   displ. norm   :     0.1623302 α      lambda       -0.1471232E-04
   maximum displ.:     0.0827603 α      in ANC's #1, #2, #4, ...

........................................................................
.............................. CYCLE   27 ..............................
........................................................................
   1    -83.3739702 -0.833740E+02  0.203E-02    2.75       0.0  T
   2    -83.3739702 -0.682172E-07  0.121E-02    2.75       1.1  T
   3    -83.3739700  0.239357E-06  0.198E-03    2.75       6.5  T
   4    -83.3739702 -0.262573E-06  0.591E-04    2.75      21.9  T
   5    -83.3739703 -0.131293E-07  0.267E-04    2.75      48.3  T
     SCC iter.                  ...        0 min,  0.014 sec
     gradient                   ...        0 min,  0.028 sec
 * total energy  :   -82.3008747 Eh     change       -0.1710715E-04 Eh
   gradient norm :     0.0011976 Eh/α   predicted    -0.7444788E-05 ( -56.48%)
   displ. norm   :     0.1217988 α      lambda       -0.1142827E-04
   maximum displ.:     0.0646065 α      in ANC's #2, #1, #4, ...

........................................................................
.............................. CYCLE   28 ..............................
........................................................................
   1    -83.3741530 -0.833742E+02  0.173E-02    2.75       0.0  T
   2    -83.3741531 -0.725966E-07  0.104E-02    2.75       1.2  T
   3    -83.3741524  0.718695E-06  0.357E-03    2.75       3.6  T
   4    -83.3741532 -0.784410E-06  0.480E-04    2.75      26.9  T
   5    -83.3741532 -0.752745E-08  0.253E-04    2.75      50.9  T
     SCC iter.                  ...        0 min,  0.014 sec
     gradient                   ...        0 min,  0.027 sec
 * total energy  :   -82.3008881 Eh     change       -0.1340872E-04 Eh
   gradient norm :     0.0022922 Eh/α   predicted    -0.5759445E-05 ( -57.05%)
   displ. norm   :     0.1132879 α      lambda       -0.1380990E-04
   maximum displ.:     0.0611680 α      in ANC's #2, #4, #1, ...

........................................................................
.............................. CYCLE   29 ..............................
........................................................................
   1    -83.3741330 -0.833741E+02  0.143E-02    2.75       0.0  T
   2    -83.3741331 -0.417006E-07  0.855E-03    2.75       1.5  T
   3    -83.3741328  0.246166E-06  0.222E-03    2.75       5.8  T
   4    -83.3741331 -0.275672E-06  0.282E-04    2.75      45.8  T
   5    -83.3741331 -0.140632E-08  0.140E-04    2.75      92.4  T
     SCC iter.                  ...        0 min,  0.014 sec
     gradient                   ...        0 min,  0.028 sec
 * total energy  :   -82.3008984 Eh     change       -0.1028682E-04 Eh
   gradient norm :     0.0018510 Eh/α   predicted    -0.6993724E-05 ( -32.01%)
   displ. norm   :     0.1719600 α      lambda       -0.1202341E-04
   maximum displ.:     0.0938715 α      in ANC's #2, #4, #1, ...

........................................................................
.............................. CYCLE   30 ..............................
........................................................................
   1    -83.3739752 -0.833740E+02  0.196E-02    2.75       0.0  T
   2    -83.3739753 -0.634704E-07  0.117E-02    2.75       1.1  T
   3    -83.3739747  0.547027E-06  0.331E-03    2.75       3.9  T
   4    -83.3739753 -0.609738E-06  0.347E-04    2.75      37.2  T
   5    -83.3739753 -0.148123E-08  0.197E-04    2.75      65.5  T
     SCC iter.                  ...        0 min,  0.014 sec
     gradient                   ...        0 min,  0.028 sec
 * total energy  :   -82.3009128 Eh     change       -0.1448536E-04 Eh
   gradient norm :     0.0012005 Eh/α   predicted    -0.6092315E-05 ( -57.94%)
   displ. norm   :     0.1885813 α      lambda       -0.1503814E-04
   maximum displ.:     0.1036041 α      in ANC's #2, #4, #1, ...

........................................................................
.............................. CYCLE   31 ..............................
........................................................................
   1    -83.3738483 -0.833738E+02  0.208E-02    2.75       0.0  T
   2    -83.3738484 -0.480551E-07  0.123E-02    2.75       1.0  T
   3    -83.3738478  0.533367E-06  0.307E-03    2.75       4.2  T
   4    -83.3738484 -0.582352E-06  0.414E-04    2.75      31.2  T
   5    -83.3738484 -0.391356E-08  0.256E-04    2.75      50.4  T
     SCC iter.                  ...        0 min,  0.014 sec
     gradient                   ...        0 min,  0.027 sec
 * total energy  :   -82.3009324 Eh     change       -0.1960408E-04 Eh
   gradient norm :     0.0018149 Eh/α   predicted    -0.7642056E-05 ( -61.02%)
   displ. norm   :     0.2898141 α      lambda       -0.2393551E-04
   maximum displ.:     0.1591790 α      in ANC's #2, #4, #3, ...

........................................................................
.............................. CYCLE   32 ..............................
........................................................................
   1    -83.3736727 -0.833737E+02  0.339E-02    2.75       0.0  T
   2    -83.3736729 -0.148872E-06  0.200E-02    2.75       1.0  T
   3    -83.3736722  0.646139E-06  0.333E-03    2.75       3.9  T
   4    -83.3736729 -0.710447E-06  0.740E-04    2.75      17.4  T
   5    -83.3736730 -0.205813E-07  0.350E-04    2.75      36.9  T
     SCC iter.                  ...        0 min,  0.014 sec
     gradient                   ...        0 min,  0.027 sec
 * total energy  :   -82.3009597 Eh     change       -0.2726307E-04 Eh
   gradient norm :     0.0023950 Eh/α   predicted    -0.1241492E-04 ( -54.46%)
   displ. norm   :     0.1723544 α      lambda       -0.1508786E-04
   maximum displ.:     0.0964111 α      in ANC's #2, #4, #3, ...

........................................................................
.............................. CYCLE   33 ..............................
........................................................................
   1    -83.3736803 -0.833737E+02  0.198E-02    2.75       0.0  T
   2    -83.3736803 -0.420817E-07  0.117E-02    2.75       1.1  T
   3    -83.3736801  0.262203E-06  0.207E-03    2.75       6.2  T
   4    -83.3736803 -0.289317E-06  0.385E-04    2.75      33.6  T
   5    -83.3736804 -0.386900E-08  0.212E-04    2.75      61.0  T
     SCC iter.                  ...        0 min,  0.014 sec
     gradient                   ...        0 min,  0.028 sec
 * total energy  :   -82.3009718 Eh     change       -0.1204432E-04 Eh
   gradient norm :     0.0011917 Eh/α   predicted    -0.7770426E-05 ( -35.48%)
   displ. norm   :     0.2229990 α      lambda       -0.1048846E-04
   maximum displ.:     0.1269795 α      in ANC's #4, #2, #3, ...

........................................................................
.............................. CYCLE   34 ..............................
........................................................................
   1    -83.3739443 -0.833739E+02  0.257E-02    2.75       0.0  T
   2    -83.3739444 -0.638197E-07  0.152E-02    2.75       1.0  T
   3    -83.3739441  0.210367E-06  0.189E-03    2.75       6.8  T
   4    -83.3739444 -0.240886E-06  0.477E-04    2.75      27.1  T
   5    -83.3739444 -0.614467E-08  0.262E-04    2.75      49.3  T
     SCC iter.                  ...        0 min,  0.014 sec
     gradient                   ...        0 min,  0.027 sec
 * total energy  :   -82.3009831 Eh     change       -0.1131911E-04 Eh
   gradient norm :     0.0006714 Eh/α   predicted    -0.5364893E-05 ( -52.60%)
   displ. norm   :     0.1072798 α      lambda       -0.5026014E-05
   maximum displ.:     0.0644057 α      in ANC's #4, #2, #3, ...

........................................................................
.............................. CYCLE   35 ..............................
........................................................................
   1    -83.3741946 -0.833742E+02  0.118E-02    2.75       0.0  T
   2    -83.3741946 -0.113823E-07  0.699E-03    2.75       1.8  T
   3    -83.3741945  0.543211E-07  0.987E-04    2.75      13.1  T
   4    -83.3741946 -0.627830E-07  0.197E-04    2.75      65.4  T
     SCC iter.                  ...        0 min,  0.011 sec
     gradient                   ...        0 min,  0.027 sec
 * total energy  :   -82.3009897 Eh     change       -0.6625332E-05 Eh
   gradient norm :     0.0006009 Eh/α   predicted    -0.2527026E-05 ( -61.86%)
   displ. norm   :     0.1230539 α      lambda       -0.7693454E-05
   maximum displ.:     0.0755433 α      in ANC's #4, #2, #3, ...

........................................................................
.............................. CYCLE   36 ..............................
........................................................................
   1    -83.3744894 -0.833745E+02  0.134E-02    2.75       0.0  T
   2    -83.3744894 -0.161577E-07  0.803E-03    2.75       1.6  T
   3    -83.3744890  0.361938E-06  0.235E-03    2.75       5.5  T
   4    -83.3744894 -0.390760E-06  0.285E-04    2.75      45.3  T
   5    -83.3744894 -0.126268E-08  0.178E-04    2.75      72.4  T
     SCC iter.                  ...        0 min,  0.014 sec
     gradient                   ...        0 min,  0.028 sec
 * total energy  :   -82.3009995 Eh     change       -0.9758125E-05 Eh
   gradient norm :     0.0017613 Eh/α   predicted    -0.3874594E-05 ( -60.29%)
   displ. norm   :     0.1822624 α      lambda       -0.1031408E-04
   maximum displ.:     0.1121532 α      in ANC's #4, #2, #3, ...

........................................................................
.............................. CYCLE   37 ..............................
........................................................................
   1    -83.3743361 -0.833743E+02  0.201E-02    2.75       0.0  T
   2    -83.3743362 -0.493776E-07  0.120E-02    2.75       1.1  T
   3    -83.3743357  0.507645E-06  0.282E-03    2.75       4.6  T
   4    -83.3743362 -0.554067E-06  0.445E-04    2.75      29.0  T
   5    -83.3743362 -0.399893E-08  0.274E-04    2.75      47.2  T
     SCC iter.                  ...        0 min,  0.014 sec
     gradient                   ...        0 min,  0.028 sec
 * total energy  :   -82.3010113 Eh     change       -0.1188688E-04 Eh
   gradient norm :     0.0006326 Eh/α   predicted    -0.5236192E-05 ( -55.95%)
   displ. norm   :     0.1745004 α      lambda       -0.7870455E-05
   maximum displ.:     0.1084322 α      in ANC's #4, #2, #3, ...

........................................................................
.............................. CYCLE   38 ..............................
........................................................................
   1    -83.3742214 -0.833742E+02  0.181E-02    2.75       0.0  T
   2    -83.3742215 -0.357227E-07  0.108E-02    2.75       1.2  T
   3    -83.3742209  0.562751E-06  0.302E-03    2.75       4.3  T
   4    -83.3742215 -0.617975E-06  0.365E-04    2.75      35.4  T
   5    -83.3742215 -0.858876E-09  0.255E-04    2.75      50.6  T
     SCC iter.                  ...        0 min,  0.014 sec
     gradient                   ...        0 min,  0.028 sec
 * total energy  :   -82.3010208 Eh     change       -0.9463512E-05 Eh
   gradient norm :     0.0008409 Eh/α   predicted    -0.3990359E-05 ( -57.83%)
   displ. norm   :     0.1686483 α      lambda       -0.6966980E-05
   maximum displ.:     0.1054795 α      in ANC's #4, #2, #3, ...

........................................................................
.............................. CYCLE   39 ..............................
........................................................................
   1    -83.3741076 -0.833741E+02  0.166E-02    2.75       0.0  T
   2    -83.3741077 -0.274454E-07  0.988E-03    2.75       1.3  T
   3    -83.3741074  0.252153E-06  0.203E-03    2.75       6.4  T
   4    -83.3741077 -0.281927E-06  0.313E-04    2.75      41.2  T
   5    -83.3741077  0.300275E-10  0.221E-04    2.75      58.3  T
     SCC iter.                  ...        0 min,  0.014 sec
     gradient                   ...        0 min,  0.027 sec
 * total energy  :   -82.3010296 Eh     change       -0.8813292E-05 Eh
   gradient norm :     0.0004114 Eh/α   predicted    -0.3528491E-05 ( -59.96%)
   displ. norm   :     0.1981959 α      lambda       -0.8281934E-05
   maximum displ.:     0.1245349 α      in ANC's #4, #2, #3, ...

........................................................................
.............................. CYCLE   40 ..............................
........................................................................
   1    -83.3738339 -0.833738E+02  0.191E-02    2.75       0.0  T
   2    -83.3738340 -0.390571E-07  0.114E-02    2.75       1.1  T
   3    -83.3738337  0.269324E-06  0.212E-03    2.75       6.1  T
   4    -83.3738340 -0.306764E-06  0.353E-04    2.75      36.5  T
   5    -83.3738340  0.632141E-09  0.236E-04    2.75      54.8  T
     SCC iter.                  ...        0 min,  0.013 sec
     gradient                   ...        0 min,  0.026 sec
 * total energy  :   -82.3010397 Eh     change       -0.1012518E-04 Eh
   gradient norm :     0.0005458 Eh/α   predicted    -0.4214994E-05 ( -58.37%)
   displ. norm   :     0.2346196 α      lambda       -0.8838972E-05
   maximum displ.:     0.1478359 α      in ANC's #4, #2, #3, ...

........................................................................
.............................. CYCLE   41 ..............................
........................................................................
   1    -83.3735562 -0.833736E+02  0.221E-02    2.75       0.0  T
   2    -83.3735562 -0.493842E-07  0.131E-02    2.75       1.0  T
   3    -83.3735561  0.133133E-06  0.159E-03    2.75       8.1  T
   4    -83.3735563 -0.165251E-06  0.380E-04    2.75      34.0  T
   5    -83.3735563 -0.930953E-09  0.179E-04    2.75      72.1  T
     SCC iter.                  ...        0 min,  0.013 sec
     gradient                   ...        0 min,  0.027 sec
 * total energy  :   -82.3010497 Eh     change       -0.9997299E-05 Eh
   gradient norm :     0.0006677 Eh/α   predicted    -0.4528648E-05 ( -54.70%)
   displ. norm   :     0.2291202 α      lambda       -0.7046855E-05
   maximum displ.:     0.1445046 α      in ANC's #4, #2, #3, ...

........................................................................
.............................. CYCLE   42 ..............................
........................................................................
   1    -83.3734711 -0.833735E+02  0.217E-02    2.75       0.0  T
   2    -83.3734712 -0.539976E-07  0.129E-02    2.75       1.0  T
   3    -83.3734710  0.143671E-06  0.168E-03    2.75       7.7  T
   4    -83.3734712 -0.176665E-06  0.384E-04    2.75      33.6  T
   5    -83.3734712 -0.108386E-08  0.188E-04    2.75      68.5  T
     SCC iter.                  ...        0 min,  0.013 sec
     gradient                   ...        0 min,  0.027 sec
 * total energy  :   -82.3010573 Eh     change       -0.7559516E-05 Eh
   gradient norm :     0.0004874 Eh/α   predicted    -0.3607582E-05 ( -52.28%)
   displ. norm   :     0.1693212 α      lambda       -0.4631245E-05
   maximum displ.:     0.1064431 α      in ANC's #4, #2, #3, ...
 * RMSD in coord.:     0.4162091 α      energy gain  -0.2901720E-03 Eh

generating ANC from model Hessian ...
Using Lindh-Hessian (1995)
 Shifting diagonal of input Hessian by    1.0236505919951167E-002
 Lowest  eigenvalues of input Hessian
    0.010000    0.000000    0.000000    0.000000    0.000000    0.000000
    0.000000    0.010323    0.010354    0.010376    0.011022    0.011961
    0.012466    0.013255    0.013527    0.013577    0.015224    0.015435
 Highest eigenvalues
    1.721765    1.888070    1.895620    1.928272    8.695334    8.837574


........................................................................
.............................. CYCLE   43 ..............................
........................................................................
   1    -83.3736570 -0.833737E+02  0.161E-02    2.75       0.0  T
   2    -83.3736570 -0.238369E-07  0.957E-03    2.75       1.3  T
   3    -83.3736569  0.979204E-07  0.133E-03    2.75       9.7  T
   4    -83.3736570 -0.114664E-06  0.312E-04    2.75      41.3  T
   5    -83.3736570 -0.629413E-09  0.198E-04    2.75      65.2  T
     SCC iter.                  ...        0 min,  0.013 sec
     gradient                   ...        0 min,  0.027 sec
 * total energy  :   -82.3010623 Eh     change       -0.5030139E-05 Eh
   gradient norm :     0.0003875 Eh/α   predicted     0.0000000E+00 (-100.00%)
   displ. norm   :     0.0151649 α      lambda       -0.1521032E-05
   maximum displ.:     0.0066505 α      in ANC's #5, #11, #6, ...

........................................................................
.............................. CYCLE   44 ..............................
........................................................................
   1    -83.3739413 -0.833739E+02  0.277E-03    2.75       0.0  T
   2    -83.3739414 -0.253269E-08  0.165E-03    2.75       7.8  T
   3    -83.3739413  0.208691E-08  0.211E-04    2.75      61.2  T
   4    -83.3739414 -0.235322E-08  0.987E-05    2.75     130.8  T
     SCC iter.                  ...        0 min,  0.011 sec
     gradient                   ...        0 min,  0.026 sec
 * total energy  :   -82.3010643 Eh     change       -0.1985395E-05 Eh
   gradient norm :     0.0002954 Eh/α   predicted    -0.8283081E-06 ( -58.28%)
   displ. norm   :     0.0443160 α      lambda       -0.3185468E-05
   maximum displ.:     0.0212655 α      in ANC's #5, #6, #11, ...

   *** GEOMETRY OPTIMIZATION CONVERGED AFTER 44 ITERATIONS ***

------------------------------------------------------------------------
 total energy gain   :        -0.0880059 Eh      -55.2245 kcal/mol
 total RMSD          :         0.4305318 a0        0.2278 Å
 total power (kW/mol):        -5.2513506 (step) -101.6625 (real)
------------------------------------------------------------------------

 ANCopt (total)                0 d,  0 h,  0 min,  2.273 sec
 optimizer setup                ...        0 min,  0.000 sec (  0.004%)
 model hessian                  ...        0 min,  0.093 sec (  4.087%)
 ANC generation                 ...        0 min,  0.008 sec (  0.348%)
 coordinate transformation      ...        0 min,  0.001 sec (  0.029%)
 single point calculation       ...        0 min,  2.155 sec ( 94.811%)
 optimization log               ...        0 min,  0.009 sec (  0.406%)
 hessian update                 ...        0 min,  0.001 sec (  0.044%)
 rational function              ...        0 min,  0.004 sec (  0.191%)

================
 final structure:
================
60
 xtb: 6.5.0 (homebrew)
C            3.28087340716165      -38.06086874943433       16.15775079748805
C            3.59873698145028      -38.26639988236141       17.63720913826939
O            3.23089860096787      -37.10095307155837       18.37114720804545
C            2.74432196088969      -39.42045013949694       18.17789961335346
C            5.12583752546966      -38.43005077239592       17.97138131914128
C            5.58251561235445      -39.86778174889145       18.20944321541823
C            6.03759436418121      -37.78224018809164       16.92107515092909
O            5.27635652368492      -37.67761111214080       19.17386490287313
B            4.19076488916189      -36.85359893305484       19.31668517836665
C            4.05483131376815      -35.78442922653156       20.43201436057356
C            5.07787736345845      -35.54529182764806       21.28127354862973
C            5.13975803235255      -34.62012382965295       22.36600497259845
H            6.08929219347785      -34.51580701044930       22.86798018200945
C            3.95105692323283      -34.02460902262340       23.08904405665478
H            4.16867699393086      -33.77491667532158       24.12435684099414
C            2.61058727605962      -34.65831780291456       22.98053644977601
B            1.81378373901088      -34.85987086027928       24.30862690793639
O            2.28224511776363      -34.47671279200351       25.53604184521617
C            1.39245024800275      -34.96181524554818       26.54066243712398
C            1.20156774676977      -33.89118995835847       27.61273485497367
C            2.06165626216871      -36.18958233990858       27.17161018135328
C            0.09746845626701      -35.32211482273845       25.72489105519177
C           -0.94185944687100      -34.19387555442879       25.72521016160037
C           -0.58202309203026      -36.62574546903596       26.13846158471103
O            0.58039357895736      -35.44147316831441       24.38676836865298
C            2.09985954416103      -35.06710515859302       21.81447100699106
C            2.76563960856403      -34.95583938826927       20.47640331425288
H            2.09767620427891      -35.36685627465794       19.71686251964186
C            3.06317773103196      -33.51392536620817       20.11040875525229
C            3.82134358149920      -32.68970307848411       20.84024672772101
C            4.40520765639926      -32.96569840398254       22.12057919776333
H            5.07510769754357      -32.22078145573906       22.52206236576804
H            2.20361708838289      -37.97600886147772       16.03770773046526
H            3.63363355569930      -38.90870240960449       15.57661878403310
H            3.73378551736988      -37.14941804678092       15.78135550389924
H            1.69546193634366      -39.15672870668863       18.06215111603055
H            2.93843840577093      -39.56605774734051       19.23763545206094
H            2.93933943440307      -40.34155542661608       17.63687536028363
H            5.39044059785021      -40.47423080123743       17.32837516802926
H            5.07864431846561      -40.30226835576285       19.06663084417143
H            6.65080261741548      -39.86864182550176       18.41131038812916
H            6.00612432709267      -38.32813153281997       15.98286577773667
H            7.05723067069602      -37.78654142895953       17.29955453993200
H            5.74543233974918      -36.74807740479254       16.75672225422225
H            5.98149616149537      -36.12532934749353       21.12920376318313
H            2.14781745711098      -33.73210844158918       28.12393817488861
H            0.46025193974647      -34.21445194442975       28.33847790105432
H            0.89333107728910      -32.94744369849415       27.17480699323607
H            3.02717818570084      -35.88875193565283       27.57190352863160
H            2.23469491457628      -36.95239371809972       26.41670695841076
H            1.45689485348870      -36.59690429104071       27.97618273480117
H           -1.38453105275177      -34.06769500007605       26.70869653477810
H           -1.72475342407802      -34.44654343784465       25.01395756472248
H           -0.48514496456037      -33.26148122082414       25.40322683916887
H           -0.88066486351067      -36.57933456684447       27.18228302245067
H            0.07431495608721      -37.47617885074744       25.98568508233630
H           -1.46781866057442      -36.77016683362785       25.52501943824926
H            1.12149304690697      -35.52807146681662       21.83182011537718
H            2.70060614537060      -33.18564011105298       19.14768953854955
H            4.04193882334013      -31.70239325866579       20.44869067191147

 Bond Distances (Angstroems)
 ---------------------------
C1-C2=1.5271         C1-H33=1.0872        C1-H34=1.0867        C1-H35=1.0851        C2-C1=1.5271         C2-O3=1.4256         
C2-C4=1.5343         C2-C5=1.5718         O3-C2=1.4256         O3-B9=1.3699         C4-C2=1.5343         C4-H36=1.0877        
C4-H37=1.0872        C4-H38=1.0859        C5-C2=1.5718         C5-C6=1.5272         C5-C7=1.5343         C5-O8=1.4265         
C6-C5=1.5272         C6-H39=1.0867        C6-H40=1.0851        C6-H41=1.0872        C7-C5=1.5343         C7-H42=1.0859        
C7-H43=1.0876        C7-H44=1.0871        O8-C5=1.4265         O8-B9=1.3704         B9-O3=1.3699         B9-O8=1.3704         
B9-C10=1.5510        C10-B9=1.5510        C10-C11=1.3509       C10-C27=1.5331       C11-C10=1.3509       C11-C12=1.4270       
C11-H45=1.0845       C12-C11=1.4270       C12-H13=1.0791       C12-C14=1.5134       C12-C31=1.8267       H13-C12=1.0791       
C14-C12=1.5134       C14-H15=1.0870       C14-C16=1.4867       C14-C31=1.5051       H15-C14=1.0870       C16-C14=1.4867       
C16-B17=1.5618       C16-C26=1.3370       B17-C16=1.5618       B17-O18=1.3685       B17-O25=1.3659       O18-B17=1.3685       
O18-C19=1.4270       C19-O18=1.4270       C19-C20=1.5271       C19-C21=1.5341       C19-C22=1.5723       C20-C19=1.5271       
C20-H46=1.0872       C20-H47=1.0866       C20-H48=1.0851       C21-C19=1.5341       C21-H49=1.0876       C21-H50=1.0871       
C21-H51=1.0858       C22-C19=1.5723       C22-C23=1.5340       C22-C24=1.5272       C22-O25=1.4276       C23-C22=1.5340       
C23-H52=1.0859       C23-H53=1.0875       C23-H54=1.0870       C24-C22=1.5272       C24-H55=1.0867       C24-H56=1.0851       
C24-H57=1.0871       O25-B17=1.3659       O25-C22=1.4276       C26-C16=1.3370       C26-C27=1.4987       C26-H58=1.0817       
C27-C10=1.5331       C27-C26=1.4987       C27-H28=1.0918       C27-C29=1.5171       H28-C27=1.0918       C29-C27=1.5171       
C29-C30=1.3367       C29-H59=1.0798       C30-C29=1.3367       C30-C31=1.4340       C30-H60=1.0848       C31-C12=1.8267       
C31-C14=1.5051       C31-C30=1.4340       C31-H32=1.0793       H32-C31=1.0793       H33-C1=1.0872        H34-C1=1.0867        
H35-C1=1.0851        H36-C4=1.0877        H37-C4=1.0872        H38-C4=1.0859        H39-C6=1.0867        H40-C6=1.0851        
H41-C6=1.0872        H42-C7=1.0859        H43-C7=1.0876        H44-C7=1.0871        H45-C11=1.0845       H46-C20=1.0872       
H47-C20=1.0866       H48-C20=1.0851       H49-C21=1.0876       H50-C21=1.0871       H51-C21=1.0858       H52-C23=1.0859       
H53-C23=1.0875       H54-C23=1.0870       H55-C24=1.0867       H56-C24=1.0851       H57-C24=1.0871       H58-C26=1.0817       
H59-C29=1.0798       H60-C30=1.0848       
 C  H  Rav=1.0858 sigma=0.0026  Rmin=1.0791  Rmax=1.0918    32
 C  B  Rav=1.5564 sigma=0.0054  Rmin=1.5510  Rmax=1.5618     2
 C  C  Rav=1.5071 sigma=0.0978  Rmin=1.3367  Rmax=1.8267    22
 O  B  Rav=1.3687 sigma=0.0017  Rmin=1.3659  Rmax=1.3704     4
 O  C  Rav=1.4267 sigma=0.0007  Rmin=1.4256  Rmax=1.4276     4

 selected bond angles (degree)
 --------------------
H33-C1-C2=108.89               H34-C1-C2=110.21               H34-C1-H33=108.87              H35-C1-C2=111.24               
H35-C1-H33=108.04              H35-C1-H34=109.53              O3-C2-C1=109.57                C4-C2-C1=109.07                
C4-C2-O3=106.85                C5-C2-C1=114.97                C5-C2-O3=103.08                C5-C2-C4=112.82                
B9-O3-C2=108.79                H36-C4-C2=108.49               H37-C4-C2=110.17               H37-C4-H36=107.96              
H38-C4-C2=111.25               H38-C4-H36=109.02              H38-C4-H37=109.88              C6-C5-C2=114.94                
C7-C5-C2=112.82                C7-C5-C6=109.06                O8-C5-C2=103.11                O8-C5-C6=109.49                
O8-C5-C7=106.96                H39-C6-C5=110.25               H40-C6-C5=111.18               H40-C6-H39=109.57              
H41-C6-C5=108.88               H41-C6-H39=108.89              H41-C6-H40=108.02              H42-C7-C5=111.22               
H43-C7-C5=108.49               H43-C7-H42=109.02              H44-C7-C5=110.21               H44-C7-H42=109.86              
H44-C7-H43=107.96              B9-O8-C5=108.75                O8-B9-O3=112.00                C10-B9-O3=124.02               
C10-B9-O8=123.98               C11-C10-B9=120.51              C27-C10-B9=117.84              C27-C10-C11=121.53             

 selected dihedral angles (degree)
 ---------------------------------
O3-C2-C1-H33=294.60           O3-C2-C1-H34=175.24           O3-C2-C1-H35= 53.55           C4-C2-C1-H33= 51.24           
C4-C2-C1-H34=291.88           C4-C2-C1-H35=170.19           C5-C2-C1-H33=179.09           C5-C2-C1-H34= 59.73           
C5-C2-C1-H35=298.04           B9-O3-C2-C1=220.10            B9-O3-C2-C4=102.07            B9-O3-C2-C5=342.97            
H36-C4-C2-C1=299.40           H36-C4-C2-O3= 57.77           H36-C4-C2-C5=170.35           H37-C4-C2-C1=181.42           
H37-C4-C2-O3=299.78           H37-C4-C2-C5= 52.36           H38-C4-C2-C1= 59.31           H38-C4-C2-O3=177.68           
H38-C4-C2-C5=290.26           C6-C5-C2-C1=258.64            C6-C5-C2-O3=139.45            C6-C5-C2-C4= 24.58            
C7-C5-C2-C1= 24.54            C7-C5-C2-O3=265.35            C7-C5-C2-C4=150.48            O8-C5-C2-C1=139.55            
O8-C5-C2-O3= 20.37            O8-C5-C2-C4=265.50            H39-C6-C5-C2= 59.48           H39-C6-C5-C7=291.66           
H39-C6-C5-O8=174.95           H40-C6-C5-C2=297.76           H40-C6-C5-C7=169.94           H40-C6-C5-O8= 53.23           
H41-C6-C5-C2=178.88           H41-C6-C5-C7= 51.06           H41-C6-C5-O8=294.35           H42-C7-C5-C2=290.43           
H42-C7-C5-C6= 59.43           H42-C7-C5-O8=177.75           H43-C7-C5-C2=170.53           H43-C7-C5-C6=299.54           
H43-C7-C5-O8= 57.85           H44-C7-C5-C2= 52.52           H44-C7-C5-C6=181.53           H44-C7-C5-O8=299.85           
B9-O8-C5-C2=343.23            B9-O8-C5-C6=220.43            B9-O8-C5-C7=102.40            O8-B9-O3-C2=  7.46            
C10-B9-O3-C2=188.45           O3-B9-O8-C5=  7.00            C10-B9-O8-C5=186.01           C11-C10-B9-O3=183.88          
C11-C10-B9-O8=  4.99          C27-C10-B9-O3=  0.03          C27-C10-B9-O8=181.14          
           -------------------------------------------------
          |                Final Singlepoint                |
           -------------------------------------------------

          ...................................................
          :                      SETUP                      :
          :.................................................:
          :  # basis functions                 144          :
          :  # atomic orbitals                 144          :
          :  # shells                           88          :
          :  # electrons                       150          :
          :  max. iterations                   250          :
          :  Hamiltonian                  GFN2-xTB          :
          :  restarted?                      false          :
          :  GBSA solvation                  false          :
          :  PC potential                    false          :
          :  electronic temp.          300.0000000     K    :
          :  accuracy                    1.0000000          :
          :  -> integral cutoff          0.2500000E+02      :
          :  -> integral neglect         0.1000000E-07      :
          :  -> SCF convergence          0.1000000E-05 Eh   :
          :  -> wf. convergence          0.1000000E-03 e    :
          :  Broyden damping             0.4000000          :
          ...................................................

 iter      E             dE          RMSdq      gap      omega  full diag
   1    -83.3739414 -0.833739E+02  0.419E-05    2.75       0.0  T
   2    -83.3739414  0.380851E-11  0.334E-05    2.75     386.9  T
   3    -83.3739414 -0.321876E-10  0.188E-05    2.75     687.3  T

   *** convergence criteria satisfied after 3 iterations ***

         #    Occupation            Energy/Eh            Energy/eV
      -------------------------------------------------------------
         1        2.0000           -0.6881271             -18.7249
       ...           ...                  ...                  ...
        69        2.0000           -0.4041287             -10.9969
        70        2.0000           -0.3978112             -10.8250
        71        2.0000           -0.3945079             -10.7351
        72        2.0000           -0.3937911             -10.7156
        73        2.0000           -0.3912848             -10.6474
        74        2.0000           -0.3603104              -9.8045
        75        2.0000           -0.3362219              -9.1491 (HOMO)
        76                         -0.2353246              -6.4035 (LUMO)
        77                         -0.2182734              -5.9395
        78                         -0.1893183              -5.1516
        79                         -0.1124330              -3.0595
        80                         -0.0978338              -2.6622
       ...                                ...                  ...
       144                          0.6747186              18.3600
      -------------------------------------------------------------
                  HL-Gap            0.1008973 Eh            2.7456 eV
             Fermi-level           -0.2857733 Eh           -7.7763 eV

 SCC (total)                   0 d,  0 h,  0 min,  0.041 sec
 SCC setup                      ...        0 min,  0.000 sec (  0.531%)
 Dispersion                     ...        0 min,  0.000 sec (  0.879%)
 classical contributions        ...        0 min,  0.000 sec (  0.401%)
 integral evaluation            ...        0 min,  0.006 sec ( 13.974%)
 iterations                     ...        0 min,  0.008 sec ( 19.374%)
 molecular gradient             ...        0 min,  0.027 sec ( 64.072%)
 printout                       ...        0 min,  0.000 sec (  0.757%)

         :::::::::::::::::::::::::::::::::::::::::::::::::::::
         ::                     SUMMARY                     ::
         :::::::::::::::::::::::::::::::::::::::::::::::::::::
         :: total energy             -82.301064319474 Eh    ::
         :: gradient norm              0.000294932542 Eh/a0 ::
         :: HOMO-LUMO gap              2.745556227978 eV    ::
         ::.................................................::
         :: SCC energy               -83.373941350805 Eh    ::
         :: -> isotropic ES            0.147511600221 Eh    ::
         :: -> anisotropic ES          0.012728870349 Eh    ::
         :: -> anisotropic XC          0.027029908405 Eh    ::
         :: -> dispersion             -0.061104406029 Eh    ::
         :: repulsion energy           1.071774693805 Eh    ::
         :: add. restraining           0.000327125592 Eh    ::
         :: total charge              -0.000000000000 e     ::
         :::::::::::::::::::::::::::::::::::::::::::::::::::::

           -------------------------------------------------
          |                Property Printout                |
           -------------------------------------------------

    * Orbital Energies and Occupations

         #    Occupation            Energy/Eh            Energy/eV
      -------------------------------------------------------------
         1        2.0000           -0.6881271             -18.7249
       ...           ...                  ...                  ...
        63        2.0000           -0.4365844             -11.8801
        64        2.0000           -0.4308104             -11.7229
        65        2.0000           -0.4261271             -11.5955
        66        2.0000           -0.4199915             -11.4286
        67        2.0000           -0.4181125             -11.3774
        68        2.0000           -0.4118615             -11.2073
        69        2.0000           -0.4041287             -10.9969
        70        2.0000           -0.3978112             -10.8250
        71        2.0000           -0.3945079             -10.7351
        72        2.0000           -0.3937911             -10.7156
        73        2.0000           -0.3912848             -10.6474
        74        2.0000           -0.3603104              -9.8045
        75        2.0000           -0.3362219              -9.1491 (HOMO)
        76                         -0.2353246              -6.4035 (LUMO)
        77                         -0.2182734              -5.9395
        78                         -0.1893183              -5.1516
        79                         -0.1124330              -3.0595
        80                         -0.0978338              -2.6622
        81                         -0.0705937              -1.9210
        82                          0.0081819               0.2226
        83                          0.0142829               0.3887
        84                          0.0282431               0.7685
        85                          0.0316949               0.8625
        86                          0.0565006               1.5375
       ...                                ...                  ...
       144                          0.6747186              18.3600
      -------------------------------------------------------------
                  HL-Gap            0.1008973 Eh            2.7456 eV
             Fermi-level           -0.2857733 Eh           -7.7763 eV

     #   Z          covCN         q      C6AA      α(0)
     1   6 C        3.755    -0.117    22.789     6.807
     2   6 C        3.859     0.129    18.450     6.109
     3   8 O        1.638    -0.373    20.346     6.089
     4   6 C        3.755    -0.116    22.767     6.804
     5   6 C        3.859     0.129    18.447     6.108
     6   6 C        3.755    -0.117    22.794     6.808
     7   6 C        3.755    -0.116    22.768     6.804
     8   8 O        1.638    -0.376    20.392     6.096
     9   5 B        2.660     0.431    15.576     6.645
    10   6 C        2.868    -0.090    30.256     9.017
    11   6 C        2.893    -0.029    28.721     8.787
    12   6 C        3.691    -0.022    21.149     6.581
    13   1 H        0.926     0.032     2.554     2.499
    14   6 C        3.863    -0.006    20.647     6.462
    15   1 H        0.925     0.047     2.356     2.400
    16   6 C        2.863    -0.086    30.162     9.002
    17   5 B        2.660     0.431    15.567     6.642
    18   8 O        1.638    -0.373    20.347     6.089
    19   6 C        3.859     0.129    18.455     6.110
    20   6 C        3.755    -0.117    22.801     6.809
    21   6 C        3.755    -0.116    22.781     6.806
    22   6 C        3.859     0.129    18.456     6.110
    23   6 C        3.755    -0.117    22.787     6.807
    24   6 C        3.755    -0.118    22.808     6.810
    25   8 O        1.638    -0.370    20.278     6.079
    26   6 C        2.901    -0.023    28.589     8.767
    27   6 C        3.860    -0.018    20.862     6.496
    28   1 H        0.924     0.046     2.375     2.410
    29   6 C        2.896    -0.038    28.932     8.819
    30   6 C        2.888    -0.036    28.885     8.811
    31   6 C        3.693    -0.019    21.089     6.571
    32   1 H        0.926     0.032     2.556     2.500
    33   1 H        0.925     0.054     2.275     2.358
    34   1 H        0.925     0.039     2.468     2.457
    35   1 H        0.925     0.051     2.304     2.374
    36   1 H        0.925     0.052     2.301     2.372
    37   1 H        0.925     0.043     2.408     2.427
    38   1 H        0.925     0.041     2.432     2.439
    39   1 H        0.925     0.039     2.462     2.454
    40   1 H        0.925     0.051     2.301     2.372
    41   1 H        0.925     0.053     2.278     2.361
    42   1 H        0.925     0.042     2.426     2.436
    43   1 H        0.925     0.051     2.307     2.375
    44   1 H        0.925     0.043     2.408     2.427
    45   1 H        0.925     0.036     2.497     2.471
    46   1 H        0.925     0.054     2.270     2.356
    47   1 H        0.925     0.040     2.450     2.448
    48   1 H        0.925     0.052     2.295     2.369
    49   1 H        0.925     0.052     2.296     2.369
    50   1 H        0.925     0.044     2.399     2.422
    51   1 H        0.925     0.043     2.414     2.430
    52   1 H        0.925     0.043     2.411     2.428
    53   1 H        0.925     0.053     2.285     2.364
    54   1 H        0.925     0.044     2.398     2.422
    55   1 H        0.925     0.040     2.448     2.447
    56   1 H        0.925     0.052     2.294     2.368
    57   1 H        0.925     0.055     2.260     2.351
    58   1 H        0.925     0.037     2.488     2.467
    59   1 H        0.926     0.027     2.632     2.537
    60   1 H        0.925     0.025     2.655     2.548

 Mol. C6AA /au·bohr⁶  :      32814.834289
 Mol. C8AA /au·bohr⁸  :     759906.138248
 Mol. α(0) /au        :        273.293851


Wiberg/Mayer (AO) data.
largest (>0.10) Wiberg bond orders for each atom

 ---------------------------------------------------------------------------
     #   Z sym  total        # sym  WBO       # sym  WBO       # sym  WBO
 ---------------------------------------------------------------------------
     1   6 C    3.994 --     2 C    0.996    34 H    0.985    33 H    0.983
                            35 H    0.982
     2   6 C    3.944 --     1 C    0.996     4 C    0.990     3 O    0.955
                             5 C    0.936
     3   8 O    2.227 --     9 B    1.120     2 C    0.955
     4   6 C    3.994 --     2 C    0.990    38 H    0.985    37 H    0.984
                            36 H    0.983
     5   6 C    3.943 --     6 C    0.996     7 C    0.990     8 O    0.955
                             2 C    0.936
     6   6 C    3.994 --     5 C    0.996    39 H    0.985    41 H    0.983
                            40 H    0.982
     7   6 C    3.995 --     5 C    0.990    42 H    0.985    44 H    0.984
                            43 H    0.983
     8   8 O    2.223 --     9 B    1.119     5 C    0.955
     9   5 B    3.379 --     3 O    1.120     8 O    1.119    10 C    1.017
    10   6 C    3.972 --    11 C    1.706     9 B    1.017    27 C    0.958
    11   6 C    3.990 --    10 C    1.706    12 C    1.195    45 H    0.960
    12   6 C    3.935 --    11 C    1.195    13 H    0.975    14 C    0.924
                            31 C    0.673
    13   1 H    0.999 --    12 C    0.975
    14   6 C    3.974 --    16 C    1.030    15 H    0.967    31 C    0.944
                            12 C    0.924
    15   1 H    0.997 --    14 C    0.967
    16   6 C    3.977 --    26 C    1.825    14 C    1.030    17 B    0.998
    17   5 B    3.376 --    25 O    1.134    18 O    1.127    16 C    0.998
    18   8 O    2.232 --    17 B    1.127    19 C    0.953
    19   6 C    3.943 --    20 C    0.997    21 C    0.991    18 O    0.953
                            22 C    0.936
    20   6 C    3.994 --    19 C    0.997    47 H    0.984    46 H    0.983
                            48 H    0.982
    21   6 C    3.994 --    19 C    0.991    51 H    0.984    50 H    0.984
                            49 H    0.983
    22   6 C    3.942 --    24 C    0.996    23 C    0.991    25 O    0.952
                            19 C    0.936
    23   6 C    3.995 --    22 C    0.991    52 H    0.984    54 H    0.984
                            53 H    0.983
    24   6 C    3.994 --    22 C    0.996    55 H    0.984    57 H    0.982
                            56 H    0.982
    25   8 O    2.238 --    17 B    1.134    22 C    0.952
    26   6 C    3.986 --    16 C    1.825    27 C    1.001    58 H    0.967
    27   6 C    3.994 --    26 C    1.001    29 C    0.980    28 H    0.972
                            10 C    0.958
    28   1 H    0.998 --    27 C    0.972
    29   6 C    3.985 --    30 C    1.789    27 C    0.980    59 H    0.971
    30   6 C    3.991 --    29 C    1.789    31 C    1.165    60 H    0.962
    31   6 C    3.928 --    30 C    1.165    32 H    0.975    14 C    0.944
                            12 C    0.673
    32   1 H    0.999 --    31 C    0.975
    33   1 H    0.997 --     1 C    0.983
    34   1 H    0.998 --     1 C    0.985
    35   1 H    0.997 --     1 C    0.982
    36   1 H    0.997 --     4 C    0.983
    37   1 H    0.998 --     4 C    0.984
    38   1 H    0.998 --     4 C    0.985
    39   1 H    0.998 --     6 C    0.985
    40   1 H    0.997 --     6 C    0.982
    41   1 H    0.997 --     6 C    0.983
    42   1 H    0.998 --     7 C    0.985
    43   1 H    0.997 --     7 C    0.983
    44   1 H    0.998 --     7 C    0.984
    45   1 H    0.999 --    11 C    0.960
    46   1 H    0.997 --    20 C    0.983
    47   1 H    0.998 --    20 C    0.984
    48   1 H    0.997 --    20 C    0.982
    49   1 H    0.997 --    21 C    0.983
    50   1 H    0.998 --    21 C    0.984
    51   1 H    0.998 --    21 C    0.984
    52   1 H    0.998 --    23 C    0.984
    53   1 H    0.997 --    23 C    0.983
    54   1 H    0.998 --    23 C    0.984
    55   1 H    0.998 --    24 C    0.984
    56   1 H    0.997 --    24 C    0.982
    57   1 H    0.997 --    24 C    0.982
    58   1 H    0.999 --    26 C    0.967
    59   1 H    0.999 --    29 C    0.971
    60   1 H    0.999 --    30 C    0.962
 ---------------------------------------------------------------------------

Topologies differ in total number of bonds
Writing topology from bond orders to xtbtopo.mol

molecular dipole:
                 x           y           z       tot (Debye)
 q only:       -0.259      -0.427       0.338
   full:       -0.172      -0.519       0.322       1.613
molecular quadrupole (traceless):
                xx          xy          yy          xz          yz          zz
 q only:      -53.840      21.484      40.515     -23.796     -52.251      13.324
  q+dip:      -58.388      13.700      51.183     -17.484     -54.417       7.204
   full:      -59.139      12.679      52.610     -19.374     -55.525       6.529

           -------------------------------------------------
          |                Geometry Summary                 |
           -------------------------------------------------

      molecular mass/u    :      382.1099696
   center of mass at/Å    :        2.9729891     -35.8850602      21.8161199
  moments of inertia/u·Å² :        0.1444511E+04   0.6306614E+04   0.6788585E+04
rotational constants/cm⁻¹ :        0.1167013E-01   0.2673008E-02   0.2483232E-02

 * 57 selected distances

     #   Z          #   Z                                           value/Å
     1   6 C        2   6 C                                       1.5271142
     2   6 C        3   8 O                                       1.4255654
     2   6 C        4   6 C                                       1.5343414
     5   6 C        6   6 C                                       1.5271867
     5   6 C        7   6 C                                       1.5343085
     5   6 C        8   8 O                                       1.4264601
     3   8 O        9   5 B                                       1.3698795
     8   8 O        9   5 B                                       1.3703661
     9   5 B       10   6 C                                       1.5509872
    10   6 C       11   6 C                                       1.3509446
    11   6 C       12   6 C                                       1.4270276
    12   6 C       13   1 H                                       1.0791091 (min)
    12   6 C       14   6 C                                       1.5134180
    14   6 C       15   1 H                                       1.0870039
    16   6 C       17   5 B                                       1.5618400 (max)
    17   5 B       18   8 O                                       1.3685079
    18   8 O       19   6 C                                       1.4269976
    19   6 C       20   6 C                                       1.5270934
    19   6 C       21   6 C                                       1.5340613
    22   6 C       23   6 C                                       1.5339905
    22   6 C       24   6 C                                       1.5271551
    17   5 B       25   8 O                                       1.3658766
    22   6 C       25   8 O                                       1.4275979
    16   6 C       26   6 C                                       1.3370336
    27   6 C       28   1 H                                       1.0917932
    29   6 C       30   6 C                                       1.3367205
    14   6 C       31   6 C                                       1.5051476
    30   6 C       31   6 C                                       1.4339882
    31   6 C       32   1 H                                       1.0792851
     1   6 C       33   1 H                                       1.0872410
     1   6 C       34   1 H                                       1.0867273
     1   6 C       35   1 H                                       1.0851476
     4   6 C       36   1 H                                       1.0876830
     4   6 C       37   1 H                                       1.0871628
     4   6 C       38   1 H                                       1.0858979
     6   6 C       39   1 H                                       1.0867173
     6   6 C       40   1 H                                       1.0850971
     6   6 C       41   1 H                                       1.0871929
     7   6 C       42   1 H                                       1.0859212
     7   6 C       43   1 H                                       1.0876229
     7   6 C       44   1 H                                       1.0871354
    11   6 C       45   1 H                                       1.0844796
    20   6 C       46   1 H                                       1.0872095
    20   6 C       47   1 H                                       1.0866235
    20   6 C       48   1 H                                       1.0851027
    21   6 C       49   1 H                                       1.0876426
    21   6 C       50   1 H                                       1.0870615
    21   6 C       51   1 H                                       1.0858106
    23   6 C       52   1 H                                       1.0858754
    23   6 C       53   1 H                                       1.0874946
    23   6 C       54   1 H                                       1.0870238
    24   6 C       55   1 H                                       1.0866942
    24   6 C       56   1 H                                       1.0850610
    24   6 C       57   1 H                                       1.0871075
    26   6 C       58   1 H                                       1.0816618
    29   6 C       59   1 H                                       1.0798416
    30   6 C       60   1 H                                       1.0847854

 * 5 distinct bonds (by element types)

   Z      Z             #   av. dist./Å        max./Å        min./Å
   1 H    6 C          32     1.0858192     1.0917932     1.0791091
   5 B    6 C           2     1.5564136     1.5618400     1.5509872
   6 C    6 C          15     1.4766354     1.5343414     1.3367205
   5 B    8 O           4     1.3686575     1.3703661     1.3658766
   6 C    8 O           4     1.4266553     1.4275979     1.4255654


optimized geometry written to: xtbopt.xyz


           -------------------------------------------------
          | TOTAL ENERGY              -82.301064319474 Eh   |
          | GRADIENT NORM               0.000294932542 Eh/α |
          | HOMO-LUMO GAP               2.745556227978 eV   |
           -------------------------------------------------

------------------------------------------------------------------------
 * finished run on 2022/07/09 at 18:32:59.166     
------------------------------------------------------------------------
 total:
 * wall-time:     0 d,  0 h,  0 min,  2.396 sec
 *  cpu-time:     0 d,  0 h,  0 min,  2.394 sec
 * ratio c/w:     0.999 speedup
 SCF:
 * wall-time:     0 d,  0 h,  0 min,  0.069 sec
 *  cpu-time:     0 d,  0 h,  0 min,  0.069 sec
 * ratio c/w:     1.000 speedup
 ANC optimizer:
 * wall-time:     0 d,  0 h,  0 min,  2.315 sec
 *  cpu-time:     0 d,  0 h,  0 min,  2.314 sec
 * ratio c/w:     0.999 speedup

