      -----------------------------------------------------------      
     |                   =====================                   |     
     |                           x T B                           |     
     |                   =====================                   |     
     |                         S. Grimme                         |     
     |          Mulliken Center for Theoretical Chemistry        |     
     |                    University of Bonn                     |     
      -----------------------------------------------------------      

   * xtb version 6.5.0 (homebrew) compiled by 'nhattrup@GPGGRP-SHANNON.CHEME.CMU.EDU' on 

   xtb is free software: you can redistribute it and/or modify it under
   the terms of the GNU Lesser General Public License as published by
   the Free Software Foundation, either version 3 of the License, or
   (at your option) any later version.
   
   xtb is distributed in the hope that it will be useful,
   but WITHOUT ANY WARRANTY; without even the implied warranty of
   MERCHANTABILITY or FITNESS FOR A PARTICULAR PURPOSE.  See the
   GNU Lesser General Public License for more details.
   
   Cite this work as:
   * C. Bannwarth, E. Caldeweyher, S. Ehlert, A. Hansen, P. Pracht,
     J. Seibert, S. Spicher, S. Grimme, WIREs Comput. Mol. Sci., 2020, 11,
     e01493. DOI: 10.1002/wcms.1493
   
   for GFN2-xTB:
   * C. Bannwarth, S. Ehlert and S. Grimme., J. Chem. Theory Comput., 2019,
     15, 1652-1671. DOI: 10.1021/acs.jctc.8b01176
   for GFN1-xTB:
   * S. Grimme, C. Bannwarth, P. Shushkov, J. Chem. Theory Comput., 2017,
     13, 1989-2009. DOI: 10.1021/acs.jctc.7b00118
   for GFN0-xTB:
   * P. Pracht, E. Caldeweyher, S. Ehlert, S. Grimme, ChemRxiv, 2019, preprint.
     DOI: 10.26434/chemrxiv.8326202.v1
   for GFN-FF:
   * S. Spicher and S. Grimme, Angew. Chem. Int. Ed., 2020, 59, 15665-15673.
     DOI: 10.1002/anie.202004239
   
   for ALPB and GBSA implicit solvation:
   * S. Ehlert, M. Stahn, S. Spicher, S. Grimme, J. Chem. Theory Comput.,
     2021, 17, 4250-4261. DOI: 10.1021/acs.jctc.1c00471
   
   for DFT-D4:
   * E. Caldeweyher, C. Bannwarth and S. Grimme, J. Chem. Phys., 2017,
     147, 034112. DOI: 10.1063/1.4993215
   * E. Caldeweyher, S. Ehlert, A. Hansen, H. Neugebauer, S. Spicher,
     C. Bannwarth and S. Grimme, J. Chem. Phys., 2019, 150, 154122.
     DOI: 10.1063/1.5090222
   * E. Caldeweyher, J.-M. Mewes, S. Ehlert and S. Grimme, Phys. Chem. Chem. Phys.
     2020, 22, 8499-8512. DOI: 10.1039/D0CP00502A
   
   for sTDA-xTB:
   * S. Grimme and C. Bannwarth, J. Chem. Phys., 2016, 145, 054103.
     DOI: 10.1063/1.4959605
   
   in the mass-spec context:
   * V. Asgeirsson, C. Bauer and S. Grimme, Chem. Sci., 2017, 8, 4879.
     DOI: 10.1039/c7sc00601b
   * J. Koopman and S. Grimme, ACS Omega 2019, 4, 12, 15120-15133.
     DOI: 10.1021/acsomega.9b02011
   
   for metadynamics refer to:
   * S. Grimme, J. Chem. Theory Comput., 2019, 155, 2847-2862
     DOI: 10.1021/acs.jctc.9b00143
   
   for SPH calculations refer to:
   * S. Spicher and S. Grimme, J. Chem. Theory Comput., 2021, 17, 1701-1714
     DOI: 10.1021/acs.jctc.0c01306
   
   with help from (in alphabetical order)
   P. Atkinson, C. Bannwarth, F. Bohle, G. Brandenburg, E. Caldeweyher
   M. Checinski, S. Dohm, S. Ehlert, S. Ehrlich, I. Gerasimov, C. Hölzer
   A. Katbashev, J. Koopman, C. Lavigne, S. Lehtola, F. März, M. Müller,
   F. Musil, H. Neugebauer, J. Pisarek, C. Plett, P. Pracht, F. Pultar,
   J. Seibert, P. Shushkov, S. Spicher, M. Stahn, M. Steiner, T. Strunk,
   J. Stückrath, T. Rose, and J. Unsleber
   
 * started run on 2022/07/09 at 18:33:28.625     

           -------------------------------------------------
          |                Calculation Setup                |
           -------------------------------------------------

          program call               : /opt/homebrew/bin/xtb bvl_bpin2_scan_9-2_xtb.xyz --chrg 0 --uhf 0 --opt --input xcontrol_bvl_bpin2_scan_9-2_xtb
          coordinate file            : bvl_bpin2_scan_9-2_xtb.xyz
          omp threads                :                     1

   ID    Z sym.   atoms
    1    6 C      1, 2, 4-7, 10-12, 14, 16, 19-24, 26, 27, 29-31
    2    8 O      3, 8, 18, 25
    3    5 B      9, 17
    4    1 H      13, 15, 28, 32-60
constraining bond 12 31 to    2.5000000 Å, actual value:    2.3854544 Å
constraining bond 10 29 to    2.2778000 Å, actual value:    2.3851337 Å

           -------------------------------------------------
          |                 G F N 2 - x T B                 |
           -------------------------------------------------

        Reference                      10.1021/acs.jctc.8b01176
      * Hamiltonian:
        H0-scaling (s, p, d)           1.850000    2.230000    2.230000
        zeta-weighting                 0.500000
      * Dispersion:
        s8                             2.700000
        a1                             0.520000
        a2                             5.000000
        s9                             5.000000
      * Repulsion:
        kExp                           1.500000    1.000000
        rExp                           1.000000
      * Coulomb:
        alpha                          2.000000
        third order                    shell-resolved
        anisotropic                    true
        a3                             3.000000
        a5                             4.000000
        cn-shift                       1.200000
        cn-exp                         4.000000
        max-rad                        5.000000


          ...................................................
          :                      SETUP                      :
          :.................................................:
          :  # basis functions                 144          :
          :  # atomic orbitals                 144          :
          :  # shells                           88          :
          :  # electrons                       150          :
          :  max. iterations                   250          :
          :  Hamiltonian                  GFN2-xTB          :
          :  restarted?                      false          :
          :  GBSA solvation                  false          :
          :  PC potential                    false          :
          :  electronic temp.          300.0000000     K    :
          :  accuracy                    1.0000000          :
          :  -> integral cutoff          0.2500000E+02      :
          :  -> integral neglect         0.1000000E-07      :
          :  -> SCF convergence          0.1000000E-05 Eh   :
          :  -> wf. convergence          0.1000000E-03 e    :
          :  Broyden damping             0.4000000          :
          ...................................................

 iter      E             dE          RMSdq      gap      omega  full diag
   1    -82.9012192 -0.829012E+02  0.479E+00    1.11       0.0  T
   2    -83.1891032 -0.287884E+00  0.312E+00    1.22       1.0  T
   3    -83.0361094  0.152994E+00  0.262E+00    2.23       1.0  T
   4    -83.2031240 -0.167015E+00  0.146E+00    1.32       1.0  T
   5    -83.3148638 -0.111740E+00  0.663E-01    1.15       1.0  T
   6    -83.3398724 -0.250087E-01  0.181E-01    1.08       1.0  T
   7    -83.3397088  0.163685E-03  0.122E-01    1.08       1.0  T
   8    -83.3403477 -0.638979E-03  0.410E-02    1.07       1.0  T
   9    -83.3404617 -0.113917E-03  0.179E-02    1.07       1.0  T
  10    -83.3404780 -0.163501E-04  0.688E-03    1.07       1.9  T
  11    -83.3404794 -0.140443E-05  0.258E-03    1.07       5.0  T
  12    -83.3404796 -0.217943E-06  0.136E-03    1.07       9.5  T
  13    -83.3404797 -0.676223E-07  0.727E-04    1.07      17.8  T
  14    -83.3404797 -0.145859E-07  0.467E-04    1.07      27.6  T

   *** convergence criteria satisfied after 14 iterations ***

         #    Occupation            Energy/Eh            Energy/eV
      -------------------------------------------------------------
         1        2.0000           -0.6860204             -18.6676
       ...           ...                  ...                  ...
        69        2.0000           -0.4006319             -10.9017
        70        2.0000           -0.3987458             -10.8504
        71        2.0000           -0.3957754             -10.7696
        72        2.0000           -0.3953674             -10.7585
        73        2.0000           -0.3905533             -10.6275
        74        2.0000           -0.3658350              -9.9549
        75        2.0000           -0.3247590              -8.8371 (HOMO)
        76                         -0.2853761              -7.7655 (LUMO)
        77                         -0.2172747              -5.9123
        78                         -0.1846402              -5.0243
        79                         -0.1518638              -4.1324
        80                         -0.0944088              -2.5690
       ...                                ...                  ...
       144                          0.6762351              18.4013
      -------------------------------------------------------------
                  HL-Gap            0.0393829 Eh            1.0717 eV
             Fermi-level           -0.3050675 Eh           -8.3013 eV

 SCC (total)                   0 d,  0 h,  0 min,  0.075 sec
 SCC setup                      ...        0 min,  0.000 sec (  0.344%)
 Dispersion                     ...        0 min,  0.000 sec (  0.590%)
 classical contributions        ...        0 min,  0.000 sec (  0.238%)
 integral evaluation            ...        0 min,  0.006 sec (  8.325%)
 iterations                     ...        0 min,  0.039 sec ( 52.048%)
 molecular gradient             ...        0 min,  0.028 sec ( 37.878%)
 printout                       ...        0 min,  0.000 sec (  0.567%)

         :::::::::::::::::::::::::::::::::::::::::::::::::::::
         ::                     SUMMARY                     ::
         :::::::::::::::::::::::::::::::::::::::::::::::::::::
         :: total energy             -82.094831895107 Eh    ::
         :: gradient norm              1.679821202618 Eh/a0 ::
         :: HOMO-LUMO gap              1.071661957992 eV    ::
         ::.................................................::
         :: SCC energy               -83.340479704710 Eh    ::
         :: -> isotropic ES            0.147478487624 Eh    ::
         :: -> anisotropic ES          0.012528424018 Eh    ::
         :: -> anisotropic XC          0.027882468567 Eh    ::
         :: -> dispersion             -0.062299461360 Eh    ::
         :: repulsion energy           1.068905157480 Eh    ::
         :: add. restraining           0.175990802425 Eh    ::
         :: total charge               0.000000000000 e     ::
         :::::::::::::::::::::::::::::::::::::::::::::::::::::

      ----------------------------------------------------------- 
     |                   =====================                   |
     |                        A N C O P T                        |
     |                   =====================                   |
     |               Approximate Normal Coordinate               |
     |                Rational Function Optimizer                |
      ----------------------------------------------------------- 

          ...................................................
          :                      SETUP                      :
          :.................................................:
          :   optimization level            normal          :
          :   max. optcycles                   200          :
          :   ANC micro-cycles                  20          :
          :   degrees of freedom               174          :
          :.................................................:
          :   RF solver                   davidson          :
          :   write xtbopt.log                true          :
          :   linear?                        false          :
          :   energy convergence         0.5000000E-05 Eh   :
          :   grad. convergence          0.1000000E-02 Eh/α :
          :   maximium RF displ.         1.0000000          :
          :   Hlow (freq-cutoff)         0.1000000E-01      :
          :   Hmax (freq-cutoff)         5.0000000          :
          :   S6 in model hess.         20.0000000          :
          ...................................................

generating ANC from model Hessian ...
Using Lindh-Hessian (1995)
 Shifting diagonal of input Hessian by   0.20460093281791783     
 Lowest  eigenvalues of input Hessian
    0.010000    0.151908    0.000000    0.000000    0.000000    0.000000
    0.000000    0.000000    0.204701    0.204737    0.204870    0.206209
    0.206455    0.207392    0.207889    0.207971    0.209230    0.209722
 Highest eigenvalues
    1.913974    2.080460    2.088174    2.164403    8.785852    8.846395


........................................................................
.............................. CYCLE    1 ..............................
........................................................................
   1    -83.3404797 -0.833405E+02  0.756E-05    1.07       0.0  T
   2    -83.3404797 -0.504485E-10  0.521E-05    1.07     247.6  T
   3    -83.3404797 -0.332534E-11  0.521E-05    1.07     247.7  T
     SCC iter.                  ...        0 min,  0.009 sec
     gradient                   ...        0 min,  0.028 sec
 * total energy  :   -82.0948319 Eh     change       -0.1255424E-07 Eh
   gradient norm :     1.6798205 Eh/α   predicted     0.0000000E+00 (-100.00%)
   displ. norm   :     0.3117371 α      lambda       -0.5165280E+00
   maximum displ.:     0.2949957 α      in ANC's #174, #173, #127, ...

........................................................................
.............................. CYCLE    2 ..............................
........................................................................
   1    -83.3313847 -0.833314E+02  0.291E-01    1.23       0.0  T
   2    -83.3303617  0.102304E-02  0.296E-01    1.21       1.0  T
   3    -83.3339844 -0.362273E-02  0.148E-01    1.22       1.0  T
   4    -83.3309239  0.306046E-02  0.221E-01    1.24       1.0  T
   5    -83.3341063 -0.318241E-02  0.366E-02    1.22       1.0  T
   6    -83.3341799 -0.735281E-04  0.824E-03    1.22       1.6  T
   7    -83.3341827 -0.287675E-05  0.320E-03    1.22       4.0  T
   8    -83.3341829 -0.145601E-06  0.102E-03    1.22      12.7  T
   9    -83.3341829 -0.145657E-07  0.373E-04    1.22      34.6  T
  10    -83.3341829 -0.211465E-08  0.179E-04    1.22      72.0  T
     SCC iter.                  ...        0 min,  0.027 sec
     gradient                   ...        0 min,  0.028 sec
 * total energy  :   -82.2242058 Eh     change       -0.1293739E+00 Eh
   gradient norm :     0.8491500 Eh/α   predicted    -0.2834573E+00 ( 119.10%)
   displ. norm   :     0.1066519 α      lambda       -0.8667259E-01
   maximum displ.:     0.0983903 α      in ANC's #174, #173, #37, ...

........................................................................
.............................. CYCLE    3 ..............................
........................................................................
   1    -83.3368661 -0.833369E+02  0.106E-01    1.16       0.0  T
   2    -83.3366965  0.169554E-03  0.106E-01    1.16       1.0  T
   3    -83.3371523 -0.455798E-03  0.591E-02    1.16       1.0  T
   4    -83.3366276  0.524779E-03  0.956E-02    1.15       1.0  T
   5    -83.3372218 -0.594252E-03  0.118E-02    1.16       1.1  T
   6    -83.3372290 -0.713880E-05  0.314E-03    1.16       4.1  T
   7    -83.3372294 -0.438200E-06  0.125E-03    1.16      10.3  T
   8    -83.3372294 -0.254392E-07  0.380E-04    1.16      33.9  T
   9    -83.3372294 -0.187237E-08  0.139E-04    1.16      92.8  T
     SCC iter.                  ...        0 min,  0.025 sec
     gradient                   ...        0 min,  0.028 sec
 * total energy  :   -82.2684791 Eh     change       -0.4427321E-01 Eh
   gradient norm :     0.0249096 Eh/α   predicted    -0.4382952E-01 (  -1.00%)
   displ. norm   :     0.0433610 α      lambda       -0.7706734E-03
   maximum displ.:     0.0203354 α      in ANC's #37, #38, #113, ...

........................................................................
.............................. CYCLE    4 ..............................
........................................................................
   1    -83.3369021 -0.833369E+02  0.282E-02    1.16       0.0  T
   2    -83.3369017  0.377012E-06  0.174E-02    1.16       1.0  T
   3    -83.3368656  0.361175E-04  0.232E-02    1.16       1.0  T
   4    -83.3368974 -0.318386E-04  0.999E-03    1.16       1.3  T
   5    -83.3369041 -0.664509E-05  0.156E-03    1.16       8.3  T
   6    -83.3369042 -0.151166E-06  0.464E-04    1.16      27.8  T
   7    -83.3369042 -0.393302E-08  0.255E-04    1.16      50.5  T
     SCC iter.                  ...        0 min,  0.019 sec
     gradient                   ...        0 min,  0.033 sec
 * total energy  :   -82.2691243 Eh     change       -0.6452580E-03 Eh
   gradient norm :     0.0137999 Eh/α   predicted    -0.3894538E-03 ( -39.64%)
   displ. norm   :     0.1266351 α      lambda       -0.1398219E-02
   maximum displ.:     0.0654112 α      in ANC's #37, #38, #32, ...

........................................................................
.............................. CYCLE    5 ..............................
........................................................................
   1    -83.3361935 -0.833362E+02  0.783E-02    1.17       0.0  T
   2    -83.3361646  0.289369E-04  0.506E-02    1.17       1.0  T
   3    -83.3355910  0.573586E-03  0.966E-02    1.17       1.0  T
   4    -83.3361920 -0.600954E-03  0.128E-02    1.17       1.0  T
   5    -83.3362041 -0.120710E-04  0.320E-03    1.17       4.0  T
   6    -83.3362047 -0.637289E-06  0.113E-03    1.17      11.4  T
   7    -83.3362047 -0.271683E-07  0.591E-04    1.17      21.8  T
   8    -83.3362047 -0.134595E-07  0.138E-04    1.17      93.6  T
     SCC iter.                  ...        0 min,  0.022 sec
     gradient                   ...        0 min,  0.028 sec
 * total energy  :   -82.2699428 Eh     change       -0.8184610E-03 Eh
   gradient norm :     0.0142285 Eh/α   predicted    -0.7104058E-03 ( -13.20%)
   displ. norm   :     0.2160574 α      lambda       -0.7618499E-03
   maximum displ.:     0.1902831 α      in ANC's #1, #37, #32, ...

........................................................................
.............................. CYCLE    6 ..............................
........................................................................
   1    -83.3340112 -0.833340E+02  0.131E-01    1.15       0.0  T
   2    -83.3337895  0.221729E-03  0.969E-02    1.16       1.0  T
   3    -83.3324062  0.138334E-02  0.163E-01    1.15       1.0  T
   4    -83.3340438 -0.163763E-02  0.803E-03    1.15       1.6  T
   5    -83.3340481 -0.427332E-05  0.282E-03    1.15       4.6  T
   6    -83.3340481 -0.944725E-08  0.206E-03    1.15       6.3  T
   7    -83.3340483 -0.188289E-06  0.472E-04    1.15      27.3  T
   8    -83.3340483 -0.935476E-08  0.261E-04    1.15      49.4  T
     SCC iter.                  ...        0 min,  0.022 sec
     gradient                   ...        0 min,  0.028 sec
 * total energy  :   -82.2690165 Eh     change        0.9262550E-03 Eh
   gradient norm :     0.0343522 Eh/α   predicted    -0.3987697E-03 (-143.05%)
   displ. norm   :     0.1564732 α      lambda       -0.2566737E-02
   maximum displ.:     0.1546833 α      in ANC's #1, #37, #38, ...

........................................................................
.............................. CYCLE    7 ..............................
........................................................................
   1    -83.3370296 -0.833370E+02  0.103E-01    1.17       0.0  T
   2    -83.3367852  0.244317E-03  0.840E-02    1.16       1.0  T
   3    -83.3363066  0.478649E-03  0.116E-01    1.17       1.0  T
   4    -83.3370629 -0.756271E-03  0.872E-03    1.16       1.5  T
   5    -83.3370682 -0.536455E-05  0.223E-03    1.16       5.8  T
   6    -83.3370683 -0.339223E-07  0.176E-03    1.16       7.3  T
   7    -83.3370684 -0.936624E-07  0.831E-04    1.16      15.5  T
   8    -83.3370684 -0.476169E-07  0.144E-04    1.16      89.6  T
     SCC iter.                  ...        0 min,  0.022 sec
     gradient                   ...        0 min,  0.028 sec
 * total energy  :   -82.2704063 Eh     change       -0.1389750E-02 Eh
   gradient norm :     0.0162019 Eh/α   predicted    -0.1315485E-02 (  -5.34%)
   displ. norm   :     0.0478713 α      lambda       -0.2982637E-03
   maximum displ.:     0.0245634 α      in ANC's #37, #1, #32, ...

........................................................................
.............................. CYCLE    8 ..............................
........................................................................
   1    -83.3379920 -0.833380E+02  0.265E-02    1.16       0.0  T
   2    -83.3379869  0.507872E-05  0.172E-02    1.16       1.0  T
   3    -83.3379170  0.699197E-04  0.352E-02    1.16       1.0  T
   4    -83.3379929 -0.758297E-04  0.181E-03    1.16       7.1  T
   5    -83.3379931 -0.202250E-06  0.859E-04    1.16      15.0  T
   6    -83.3379931 -0.468589E-07  0.324E-04    1.16      39.8  T
     SCC iter.                  ...        0 min,  0.016 sec
     gradient                   ...        0 min,  0.027 sec
 * total energy  :   -82.2706436 Eh     change       -0.2373317E-03 Eh
   gradient norm :     0.0103037 Eh/α   predicted    -0.1495313E-03 ( -36.99%)
   displ. norm   :     0.1429502 α      lambda       -0.5929750E-03
   maximum displ.:     0.0806477 α      in ANC's #37, #32, #33, ...

........................................................................
.............................. CYCLE    9 ..............................
........................................................................
   1    -83.3399356 -0.833399E+02  0.726E-02    1.15       0.0  T
   2    -83.3399337  0.187687E-05  0.428E-02    1.15       1.0  T
   3    -83.3397326  0.201112E-03  0.558E-02    1.16       1.0  T
   4    -83.3399372 -0.204581E-03  0.377E-03    1.15       3.4  T
   5    -83.3399380 -0.776722E-06  0.152E-03    1.15       8.5  T
   6    -83.3399380 -0.721067E-07  0.638E-04    1.15      20.2  T
   7    -83.3399380 -0.266458E-08  0.312E-04    1.15      41.4  T
     SCC iter.                  ...        0 min,  0.019 sec
     gradient                   ...        0 min,  0.028 sec
 * total energy  :   -82.2709818 Eh     change       -0.3381678E-03 Eh
   gradient norm :     0.0116862 Eh/α   predicted    -0.3025330E-03 ( -10.54%)
   displ. norm   :     0.0549880 α      lambda       -0.1226895E-03
   maximum displ.:     0.0276365 α      in ANC's #37, #32, #33, ...

........................................................................
.............................. CYCLE   10 ..............................
........................................................................
   1    -83.3405179 -0.833405E+02  0.263E-02    1.15       0.0  T
   2    -83.3405178  0.111604E-06  0.159E-02    1.15       1.0  T
   3    -83.3405012  0.165954E-04  0.157E-02    1.14       1.0  T
   4    -83.3405176 -0.164723E-04  0.258E-03    1.15       5.0  T
   5    -83.3405181 -0.457295E-06  0.632E-04    1.15      20.4  T
   6    -83.3405181 -0.229693E-07  0.228E-04    1.15      56.6  T
     SCC iter.                  ...        0 min,  0.016 sec
     gradient                   ...        0 min,  0.028 sec
 * total energy  :   -82.2710668 Eh     change       -0.8505391E-04 Eh
   gradient norm :     0.0062256 Eh/α   predicted    -0.6161988E-04 ( -27.55%)
   displ. norm   :     0.0518062 α      lambda       -0.9511462E-04
   maximum displ.:     0.0200520 α      in ANC's #37, #32, #33, ...

........................................................................
.............................. CYCLE   11 ..............................
........................................................................
   1    -83.3411573 -0.833412E+02  0.235E-02    1.14       0.0  T
   2    -83.3411573 -0.839582E-08  0.142E-02    1.14       1.0  T
   3    -83.3411471  0.101223E-04  0.123E-02    1.14       1.0  T
   4    -83.3411570 -0.984802E-05  0.278E-03    1.14       4.6  T
   5    -83.3411575 -0.481974E-06  0.688E-04    1.14      18.8  T
   6    -83.3411575 -0.290770E-07  0.200E-04    1.14      64.7  T
     SCC iter.                  ...        0 min,  0.016 sec
     gradient                   ...        0 min,  0.028 sec
 * total energy  :   -82.2711337 Eh     change       -0.6692622E-04 Eh
   gradient norm :     0.0050556 Eh/α   predicted    -0.4770453E-04 ( -28.72%)
   displ. norm   :     0.0406951 α      lambda       -0.6734749E-04
   maximum displ.:     0.0129958 α      in ANC's #17, #29, #32, ...

........................................................................
.............................. CYCLE   12 ..............................
........................................................................
   1    -83.3416882 -0.833417E+02  0.162E-02    1.13       0.0  T
   2    -83.3416882 -0.201055E-08  0.963E-03    1.13       1.3  T
   3    -83.3416826  0.557481E-05  0.923E-03    1.14       1.4  T
   4    -83.3416877 -0.505448E-05  0.329E-03    1.13       3.9  T
   5    -83.3416884 -0.692571E-06  0.474E-04    1.13      27.2  T
   6    -83.3416884 -0.108866E-07  0.207E-04    1.13      62.4  T
     SCC iter.                  ...        0 min,  0.016 sec
     gradient                   ...        0 min,  0.028 sec
 * total energy  :   -82.2711826 Eh     change       -0.4881211E-04 Eh
   gradient norm :     0.0041540 Eh/α   predicted    -0.3377161E-04 ( -30.81%)
   displ. norm   :     0.0421045 α      lambda       -0.5900926E-04
   maximum displ.:     0.0143404 α      in ANC's #17, #29, #30, ...

........................................................................
.............................. CYCLE   13 ..............................
........................................................................
   1    -83.3421015 -0.833421E+02  0.148E-02    1.13       0.0  T
   2    -83.3421007  0.750619E-06  0.923E-03    1.13       1.4  T
   3    -83.3420799  0.208502E-04  0.184E-02    1.13       1.0  T
   4    -83.3421014 -0.215562E-04  0.219E-03    1.13       5.9  T
   5    -83.3421017 -0.297496E-06  0.465E-04    1.13      27.8  T
   6    -83.3421017 -0.102883E-07  0.221E-04    1.13      58.3  T
     SCC iter.                  ...        0 min,  0.016 sec
     gradient                   ...        0 min,  0.028 sec
 * total energy  :   -82.2712245 Eh     change       -0.4196906E-04 Eh
   gradient norm :     0.0033483 Eh/α   predicted    -0.2956297E-04 ( -29.56%)
   displ. norm   :     0.0378832 α      lambda       -0.4471347E-04
   maximum displ.:     0.0131441 α      in ANC's #29, #17, #30, ...

........................................................................
.............................. CYCLE   14 ..............................
........................................................................
   1    -83.3422133 -0.833422E+02  0.132E-02    1.13       0.0  T
   2    -83.3422114  0.189813E-05  0.923E-03    1.13       1.4  T
   3    -83.3421955  0.158993E-04  0.173E-02    1.13       1.0  T
   4    -83.3422135 -0.180386E-04  0.136E-03    1.13       9.5  T
   5    -83.3422136 -0.113539E-06  0.445E-04    1.13      29.0  T
   6    -83.3422136 -0.985736E-08  0.232E-04    1.13      55.7  T
     SCC iter.                  ...        0 min,  0.016 sec
     gradient                   ...        0 min,  0.028 sec
 * total energy  :   -82.2712565 Eh     change       -0.3199080E-04 Eh
   gradient norm :     0.0031155 Eh/α   predicted    -0.2239649E-04 ( -29.99%)
   displ. norm   :     0.0337662 α      lambda       -0.3521358E-04
   maximum displ.:     0.0124214 α      in ANC's #29, #17, #30, ...

........................................................................
.............................. CYCLE   15 ..............................
........................................................................
   1    -83.3420492 -0.833420E+02  0.131E-02    1.13       0.0  T
   2    -83.3420466  0.260336E-05  0.991E-03    1.13       1.3  T
   3    -83.3420339  0.126218E-04  0.162E-02    1.13       1.0  T
   4    -83.3420495 -0.155830E-04  0.120E-03    1.13      10.7  T
   5    -83.3420496 -0.845594E-07  0.311E-04    1.13      41.5  T
   6    -83.3420496 -0.292584E-08  0.152E-04    1.13      84.7  T
     SCC iter.                  ...        0 min,  0.016 sec
     gradient                   ...        0 min,  0.028 sec
 * total energy  :   -82.2712817 Eh     change       -0.2517632E-04 Eh
   gradient norm :     0.0026354 Eh/α   predicted    -0.1763976E-04 ( -29.94%)
   displ. norm   :     0.0312992 α      lambda       -0.2851794E-04
   maximum displ.:     0.0126280 α      in ANC's #29, #17, #30, ...

........................................................................
.............................. CYCLE   16 ..............................
........................................................................
   1    -83.3417412 -0.833417E+02  0.137E-02    1.13       0.0  T
   2    -83.3417390  0.222169E-05  0.101E-02    1.13       1.3  T
   3    -83.3417237  0.153341E-04  0.171E-02    1.13       1.0  T
   4    -83.3417415 -0.178116E-04  0.138E-03    1.13       9.3  T
   5    -83.3417416 -0.113839E-06  0.332E-04    1.13      38.8  T
   6    -83.3417416 -0.265531E-08  0.197E-04    1.13      65.5  T
     SCC iter.                  ...        0 min,  0.016 sec
     gradient                   ...        0 min,  0.028 sec
 * total energy  :   -82.2713024 Eh     change       -0.2073887E-04 Eh
   gradient norm :     0.0023066 Eh/α   predicted    -0.1428268E-04 ( -31.13%)
   displ. norm   :     0.0329976 α      lambda       -0.2647402E-04
   maximum displ.:     0.0141217 α      in ANC's #29, #17, #30, ...

........................................................................
.............................. CYCLE   17 ..............................
........................................................................
   1    -83.3414182 -0.833414E+02  0.151E-02    1.13       0.0  T
   2    -83.3414171  0.117868E-05  0.101E-02    1.13       1.3  T
   3    -83.3413937  0.233863E-04  0.196E-02    1.13       1.0  T
   4    -83.3414183 -0.246096E-04  0.161E-03    1.13       8.0  T
   5    -83.3414185 -0.175212E-06  0.312E-04    1.13      41.4  T
   6    -83.3414185 -0.194140E-08  0.187E-04    1.13      69.2  T
     SCC iter.                  ...        0 min,  0.017 sec
     gradient                   ...        0 min,  0.028 sec
 * total energy  :   -82.2713216 Eh     change       -0.1916463E-04 Eh
   gradient norm :     0.0023870 Eh/α   predicted    -0.1327008E-04 ( -30.76%)
   displ. norm   :     0.0330751 α      lambda       -0.2316578E-04
   maximum displ.:     0.0146590 α      in ANC's #29, #30, #17, ...

........................................................................
.............................. CYCLE   18 ..............................
........................................................................
   1    -83.3412194 -0.833412E+02  0.148E-02    1.13       0.0  T
   2    -83.3412192  0.161867E-06  0.909E-03    1.13       1.4  T
   3    -83.3412083  0.109242E-04  0.130E-02    1.13       1.0  T
   4    -83.3412193 -0.109712E-04  0.160E-03    1.13       8.1  T
   5    -83.3412195 -0.190753E-06  0.288E-04    1.13      44.8  T
   6    -83.3412195 -0.283113E-08  0.126E-04    1.13     102.1  T
     SCC iter.                  ...        0 min,  0.016 sec
     gradient                   ...        0 min,  0.028 sec
 * total energy  :   -82.2713381 Eh     change       -0.1645843E-04 Eh
   gradient norm :     0.0023248 Eh/α   predicted    -0.1159774E-04 ( -29.53%)
   displ. norm   :     0.0283761 α      lambda       -0.1731560E-04
   maximum displ.:     0.0127171 α      in ANC's #29, #30, #17, ...

........................................................................
.............................. CYCLE   19 ..............................
........................................................................
   1    -83.3412397 -0.833412E+02  0.119E-02    1.13       0.0  T
   2    -83.3412397  0.392535E-07  0.722E-03    1.13       1.8  T
   3    -83.3412346  0.504599E-05  0.853E-03    1.13       1.5  T
   4    -83.3412397 -0.505484E-05  0.121E-03    1.13      10.7  T
   5    -83.3412398 -0.905663E-07  0.314E-04    1.13      41.1  T
   6    -83.3412398 -0.533055E-08  0.149E-04    1.13      86.4  T
     SCC iter.                  ...        0 min,  0.017 sec
     gradient                   ...        0 min,  0.028 sec
 * total energy  :   -82.2713502 Eh     change       -0.1214844E-04 Eh
   gradient norm :     0.0018022 Eh/α   predicted    -0.8670205E-05 ( -28.63%)
   displ. norm   :     0.0331996 α      lambda       -0.1169098E-04
   maximum displ.:     0.0143600 α      in ANC's #29, #18, #28, ...

........................................................................
.............................. CYCLE   20 ..............................
........................................................................
   1    -83.3414889 -0.833415E+02  0.125E-02    1.13       0.0  T
   2    -83.3414883  0.563047E-06  0.820E-03    1.13       1.6  T
   3    -83.3414724  0.159403E-04  0.158E-02    1.13       1.0  T
   4    -83.3414889 -0.165883E-04  0.137E-03    1.13       9.5  T
   5    -83.3414890 -0.101266E-06  0.302E-04    1.13      42.8  T
   6    -83.3414890 -0.373176E-08  0.103E-04    1.13     125.2  T
     SCC iter.                  ...        0 min,  0.016 sec
     gradient                   ...        0 min,  0.027 sec
 * total energy  :   -82.2713602 Eh     change       -0.1001181E-04 Eh
   gradient norm :     0.0015016 Eh/α   predicted    -0.5860583E-05 ( -41.46%)
   displ. norm   :     0.0122802 α      lambda       -0.5823915E-05
   maximum displ.:     0.0042666 α      in ANC's #28, #18, #1, ...
 * RMSD in coord.:     0.0981114 α      energy gain  -0.1765283E+00 Eh

generating ANC from model Hessian ...
Using Lindh-Hessian (1995)
 Shifting diagonal of input Hessian by    1.0274719266035185E-002
 Lowest  eigenvalues of input Hessian
    0.010000    0.000000    0.000000    0.000000    0.000000    0.000000
    0.000000    0.010359    0.010386    0.010409    0.010989    0.011969
    0.012577    0.013247    0.013562    0.013622    0.014922    0.015405
 Highest eigenvalues
    1.719621    1.885540    1.901572    1.914356    8.603704    8.674641


........................................................................
.............................. CYCLE   21 ..............................
........................................................................
   1    -83.3416887 -0.833417E+02  0.436E-03    1.13       0.0  T
   2    -83.3416886  0.119936E-06  0.307E-03    1.13       4.2  T
   3    -83.3416870  0.163828E-05  0.527E-03    1.13       2.4  T
   4    -83.3416887 -0.175467E-05  0.767E-04    1.13      16.8  T
   5    -83.3416888 -0.384789E-07  0.193E-04    1.13      66.8  T
   6    -83.3416888 -0.223133E-08  0.622E-05    1.13     207.4  T
     SCC iter.                  ...        0 min,  0.016 sec
     gradient                   ...        0 min,  0.028 sec
 * total energy  :   -82.2713673 Eh     change       -0.7055394E-05 Eh
   gradient norm :     0.0012110 Eh/α   predicted     0.0000000E+00 (-100.00%)
   displ. norm   :     0.0587541 α      lambda       -0.2405935E-04
   maximum displ.:     0.0363376 α      in ANC's #3, #6, #8, ...

........................................................................
.............................. CYCLE   22 ..............................
........................................................................
   1    -83.3417046 -0.833417E+02  0.158E-02    1.13       0.0  T
   2    -83.3417028  0.183330E-05  0.107E-02    1.13       1.2  T
   3    -83.3416784  0.244277E-04  0.206E-02    1.13       1.0  T
   4    -83.3417049 -0.264848E-04  0.125E-03    1.13      10.4  T
   5    -83.3417050 -0.111715E-06  0.376E-04    1.13      34.4  T
   6    -83.3417050 -0.469747E-08  0.240E-04    1.13      53.8  T
     SCC iter.                  ...        0 min,  0.017 sec
     gradient                   ...        0 min,  0.028 sec
 * total energy  :   -82.2713939 Eh     change       -0.2660844E-04 Eh
   gradient norm :     0.0007495 Eh/α   predicted    -0.1206849E-04 ( -54.64%)
   displ. norm   :     0.1111947 α      lambda       -0.2760128E-04
   maximum displ.:     0.0731373 α      in ANC's #3, #6, #8, ...

........................................................................
.............................. CYCLE   23 ..............................
........................................................................
   1    -83.3415755 -0.833416E+02  0.219E-02    1.14       0.0  T
   2    -83.3415710  0.455379E-05  0.151E-02    1.14       1.0  T
   3    -83.3415266  0.443366E-04  0.284E-02    1.14       1.0  T
   4    -83.3415761 -0.495048E-04  0.150E-03    1.14       8.6  T
   5    -83.3415763 -0.141271E-06  0.409E-04    1.14      31.5  T
   6    -83.3415763  0.667626E-10  0.303E-04    1.14      42.6  T
     SCC iter.                  ...        0 min,  0.016 sec
     gradient                   ...        0 min,  0.028 sec
 * total energy  :   -82.2714237 Eh     change       -0.2981585E-04 Eh
   gradient norm :     0.0010016 Eh/α   predicted    -0.1387659E-04 ( -53.46%)
   displ. norm   :     0.1150699 α      lambda       -0.2016370E-04
   maximum displ.:     0.0789994 α      in ANC's #3, #6, #8, ...

........................................................................
.............................. CYCLE   24 ..............................
........................................................................
   1    -83.3414891 -0.833415E+02  0.198E-02    1.14       0.0  T
   2    -83.3414873  0.175488E-05  0.127E-02    1.14       1.0  T
   3    -83.3414469  0.404391E-04  0.258E-02    1.14       1.0  T
   4    -83.3414893 -0.424086E-04  0.139E-03    1.14       9.3  T
   5    -83.3414894 -0.115453E-06  0.330E-04    1.14      39.2  T
   6    -83.3414894  0.766107E-09  0.209E-04    1.14      61.8  T
     SCC iter.                  ...        0 min,  0.016 sec
     gradient                   ...        0 min,  0.027 sec
 * total energy  :   -82.2714472 Eh     change       -0.2346833E-04 Eh
   gradient norm :     0.0022233 Eh/α   predicted    -0.1014460E-04 ( -56.77%)
   displ. norm   :     0.0721584 α      lambda       -0.1745289E-04
   maximum displ.:     0.0519439 α      in ANC's #3, #6, #5, ...

........................................................................
.............................. CYCLE   25 ..............................
........................................................................
   1    -83.3414865 -0.833415E+02  0.120E-02    1.14       0.0  T
   2    -83.3414864  0.577940E-07  0.721E-03    1.14       1.8  T
   3    -83.3414814  0.506663E-05  0.878E-03    1.14       1.5  T
   4    -83.3414865 -0.513775E-05  0.678E-04    1.14      19.0  T
   5    -83.3414865 -0.258923E-07  0.227E-04    1.14      57.0  T
   6    -83.3414865 -0.657408E-09  0.126E-04    1.14     102.4  T
     SCC iter.                  ...        0 min,  0.016 sec
     gradient                   ...        0 min,  0.028 sec
 * total energy  :   -82.2714619 Eh     change       -0.1468680E-04 Eh
   gradient norm :     0.0012884 Eh/α   predicted    -0.8774045E-05 ( -40.26%)
   displ. norm   :     0.1197349 α      lambda       -0.1732010E-04
   maximum displ.:     0.0884073 α      in ANC's #3, #6, #1, ...

........................................................................
.............................. CYCLE   26 ..............................
........................................................................
   1    -83.3415345 -0.833415E+02  0.192E-02    1.14       0.0  T
   2    -83.3415344  0.580699E-07  0.115E-02    1.14       1.1  T
   3    -83.3415254  0.901524E-05  0.116E-02    1.14       1.1  T
   4    -83.3415344 -0.903088E-05  0.162E-03    1.14       8.0  T
   5    -83.3415346 -0.158434E-06  0.407E-04    1.14      31.8  T
   6    -83.3415346 -0.440117E-08  0.215E-04    1.14      60.1  T
     SCC iter.                  ...        0 min,  0.016 sec
     gradient                   ...        0 min,  0.028 sec
 * total energy  :   -82.2714810 Eh     change       -0.1911678E-04 Eh
   gradient norm :     0.0021433 Eh/α   predicted    -0.8716647E-05 ( -54.40%)
   displ. norm   :     0.0515322 α      lambda       -0.1033233E-04
   maximum displ.:     0.0411694 α      in ANC's #3, #4, #1, ...

........................................................................
.............................. CYCLE   27 ..............................
........................................................................
   1    -83.3416312 -0.833416E+02  0.737E-03    1.14       0.0  T
   2    -83.3416307  0.443620E-06  0.508E-03    1.14       2.5  T
   3    -83.3416255  0.520787E-05  0.952E-03    1.14       1.4  T
   4    -83.3416312 -0.569124E-05  0.769E-04    1.14      16.8  T
   5    -83.3416312 -0.420855E-07  0.199E-04    1.14      64.8  T
   6    -83.3416312 -0.171043E-08  0.888E-05    1.14     145.4  T
     SCC iter.                  ...        0 min,  0.016 sec
     gradient                   ...        0 min,  0.028 sec
 * total energy  :   -82.2714900 Eh     change       -0.9003816E-05 Eh
   gradient norm :     0.0010195 Eh/α   predicted    -0.5180918E-05 ( -42.46%)
   displ. norm   :     0.0776617 α      lambda       -0.1075328E-04
   maximum displ.:     0.0608410 α      in ANC's #3, #4, #1, ...

........................................................................
.............................. CYCLE   28 ..............................
........................................................................
   1    -83.3418076 -0.833418E+02  0.108E-02    1.14       0.0  T
   2    -83.3418059  0.168542E-05  0.799E-03    1.14       1.6  T
   3    -83.3417971  0.884839E-05  0.135E-02    1.14       1.0  T
   4    -83.3418079 -0.107795E-04  0.498E-04    1.14      25.9  T
   5    -83.3418079 -0.117082E-07  0.270E-04    1.14      47.7  T
   6    -83.3418079 -0.342222E-08  0.128E-04    1.14     101.1  T
     SCC iter.                  ...        0 min,  0.018 sec
     gradient                   ...        0 min,  0.029 sec
 * total energy  :   -82.2715044 Eh     change       -0.1444909E-04 Eh
   gradient norm :     0.0018530 Eh/α   predicted    -0.5391697E-05 ( -62.68%)
   displ. norm   :     0.0902923 α      lambda       -0.1235435E-04
   maximum displ.:     0.0682849 α      in ANC's #3, #4, #8, ...

........................................................................
.............................. CYCLE   29 ..............................
........................................................................
   1    -83.3418891 -0.833419E+02  0.121E-02    1.14       0.0  T
   2    -83.3418882  0.942798E-06  0.800E-03    1.14       1.6  T
   3    -83.3418729  0.152811E-04  0.161E-02    1.14       1.0  T
   4    -83.3418893 -0.163752E-04  0.437E-04    1.14      29.5  T
   5    -83.3418893 -0.737761E-08  0.229E-04    1.14      56.3  T
   6    -83.3418893 -0.118861E-08  0.135E-04    1.14      95.8  T
     SCC iter.                  ...        0 min,  0.016 sec
     gradient                   ...        0 min,  0.028 sec
 * total energy  :   -82.2715209 Eh     change       -0.1645614E-04 Eh
   gradient norm :     0.0009137 Eh/α   predicted    -0.6201419E-05 ( -62.32%)
   displ. norm   :     0.1021244 α      lambda       -0.1230264E-04
   maximum displ.:     0.0769299 α      in ANC's #3, #4, #8, ...

........................................................................
.............................. CYCLE   30 ..............................
........................................................................
   1    -83.3419014 -0.833419E+02  0.128E-02    1.14       0.0  T
   2    -83.3419011  0.341141E-06  0.795E-03    1.14       1.6  T
   3    -83.3418864  0.147340E-04  0.151E-02    1.14       1.0  T
   4    -83.3419015 -0.151552E-04  0.385E-04    1.14      33.5  T
   5    -83.3419015 -0.255885E-08  0.279E-04    1.14      46.2  T
   6    -83.3419015 -0.378667E-08  0.132E-04    1.14      97.8  T
     SCC iter.                  ...        0 min,  0.016 sec
     gradient                   ...        0 min,  0.028 sec
 * total energy  :   -82.2715371 Eh     change       -0.1623210E-04 Eh
   gradient norm :     0.0005722 Eh/α   predicted    -0.6180184E-05 ( -61.93%)
   displ. norm   :     0.0977976 α      lambda       -0.1054630E-04
   maximum displ.:     0.0746648 α      in ANC's #3, #4, #8, ...

........................................................................
.............................. CYCLE   31 ..............................
........................................................................
   1    -83.3418598 -0.833419E+02  0.113E-02    1.14       0.0  T
   2    -83.3418598  0.182706E-07  0.679E-03    1.14       1.9  T
   3    -83.3418563  0.345391E-05  0.721E-03    1.14       1.8  T
   4    -83.3418598 -0.349311E-05  0.622E-04    1.14      20.7  T
   5    -83.3418598 -0.180012E-07  0.322E-04    1.14      40.1  T
   6    -83.3418598 -0.722085E-08  0.112E-04    1.14     115.2  T
     SCC iter.                  ...        0 min,  0.017 sec
     gradient                   ...        0 min,  0.028 sec
 * total energy  :   -82.2715512 Eh     change       -0.1410381E-04 Eh
   gradient norm :     0.0004968 Eh/α   predicted    -0.5299840E-05 ( -62.42%)
   displ. norm   :     0.0871973 α      lambda       -0.9278754E-05
   maximum displ.:     0.0674204 α      in ANC's #3, #4, #1, ...

........................................................................
.............................. CYCLE   32 ..............................
........................................................................
   1    -83.3418051 -0.833418E+02  0.957E-03    1.14       0.0  T
   2    -83.3418050  0.121414E-06  0.582E-03    1.14       2.2  T
   3    -83.3417982  0.675945E-05  0.101E-02    1.14       1.3  T
   4    -83.3418051 -0.690692E-05  0.615E-04    1.14      21.0  T
   5    -83.3418051 -0.215821E-07  0.277E-04    1.14      46.6  T
   6    -83.3418051 -0.485498E-08  0.114E-04    1.14     113.2  T
     SCC iter.                  ...        0 min,  0.016 sec
     gradient                   ...        0 min,  0.028 sec
 * total energy  :   -82.2715640 Eh     change       -0.1274588E-04 Eh
   gradient norm :     0.0007483 Eh/α   predicted    -0.4659988E-05 ( -63.44%)
   displ. norm   :     0.0882773 α      lambda       -0.9534448E-05
   maximum displ.:     0.0677462 α      in ANC's #3, #4, #1, ...

........................................................................
.............................. CYCLE   33 ..............................
........................................................................
   1    -83.3417604 -0.833418E+02  0.942E-03    1.14       0.0  T
   2    -83.3417596  0.808769E-06  0.643E-03    1.14       2.0  T
   3    -83.3417511  0.853891E-05  0.124E-02    1.14       1.0  T
   4    -83.3417606 -0.947053E-05  0.459E-04    1.14      28.1  T
   5    -83.3417606 -0.105136E-07  0.206E-04    1.14      62.6  T
   6    -83.3417606 -0.166925E-08  0.993E-05    1.14     130.0  T
     SCC iter.                  ...        0 min,  0.016 sec
     gradient                   ...        0 min,  0.028 sec
 * total energy  :   -82.2715775 Eh     change       -0.1355683E-04 Eh
   gradient norm :     0.0007747 Eh/α   predicted    -0.4786027E-05 ( -64.70%)
   displ. norm   :     0.1070301 α      lambda       -0.1176471E-04
   maximum displ.:     0.0802491 α      in ANC's #3, #4, #1, ...

........................................................................
.............................. CYCLE   34 ..............................
........................................................................
   1    -83.3417176 -0.833417E+02  0.118E-02    1.14       0.0  T
   2    -83.3417165  0.113157E-05  0.786E-03    1.14       1.6  T
   3    -83.3417025  0.139344E-04  0.156E-02    1.14       1.0  T
   4    -83.3417178 -0.152186E-04  0.681E-04    1.14      19.0  T
   5    -83.3417178 -0.306503E-07  0.216E-04    1.14      59.6  T
   6    -83.3417178 -0.633975E-09  0.143E-04    1.14      90.5  T
     SCC iter.                  ...        0 min,  0.016 sec
     gradient                   ...        0 min,  0.027 sec
 * total energy  :   -82.2715940 Eh     change       -0.1651531E-04 Eh
   gradient norm :     0.0014876 Eh/α   predicted    -0.5912685E-05 ( -64.20%)
   displ. norm   :     0.1426290 α      lambda       -0.1533475E-04
   maximum displ.:     0.1048424 α      in ANC's #3, #4, #8, ...

........................................................................
.............................. CYCLE   35 ..............................
........................................................................
   1    -83.3416402 -0.833416E+02  0.161E-02    1.14       0.0  T
   2    -83.3416385  0.171669E-05  0.106E-02    1.15       1.2  T
   3    -83.3416112  0.273028E-04  0.215E-02    1.14       1.0  T
   4    -83.3416404 -0.292653E-04  0.742E-04    1.14      17.4  T
   5    -83.3416405 -0.274384E-07  0.283E-04    1.14      45.6  T
   6    -83.3416405  0.320270E-09  0.188E-04    1.14      68.8  T
     SCC iter.                  ...        0 min,  0.017 sec
     gradient                   ...        0 min,  0.028 sec
 * total energy  :   -82.2716145 Eh     change       -0.2051591E-04 Eh
   gradient norm :     0.0023247 Eh/α   predicted    -0.7738284E-05 ( -62.28%)
   displ. norm   :     0.1140015 α      lambda       -0.1649083E-04
   maximum displ.:     0.0830253 α      in ANC's #3, #4, #5, ...

........................................................................
.............................. CYCLE   36 ..............................
........................................................................
   1    -83.3416646 -0.833417E+02  0.122E-02    1.15       0.0  T
   2    -83.3416639  0.642674E-06  0.771E-03    1.15       1.7  T
   3    -83.3416481  0.157825E-04  0.160E-02    1.15       1.0  T
   4    -83.3416646 -0.165091E-04  0.665E-04    1.15      19.4  T
   5    -83.3416647 -0.294800E-07  0.223E-04    1.15      58.0  T
   6    -83.3416647 -0.319460E-09  0.153E-04    1.15      84.6  T
     SCC iter.                  ...        0 min,  0.016 sec
     gradient                   ...        0 min,  0.028 sec
 * total energy  :   -82.2716298 Eh     change       -0.1527725E-04 Eh
   gradient norm :     0.0006021 Eh/α   predicted    -0.8353427E-05 ( -45.32%)
   displ. norm   :     0.1983551 α      lambda       -0.1710038E-04
   maximum displ.:     0.1441136 α      in ANC's #3, #4, #5, ...

........................................................................
.............................. CYCLE   37 ..............................
........................................................................
   1    -83.3417016 -0.833417E+02  0.203E-02    1.15       0.0  T
   2    -83.3417008  0.865233E-06  0.125E-02    1.15       1.0  T
   3    -83.3416643  0.364632E-04  0.237E-02    1.15       1.0  T
   4    -83.3417018 -0.374683E-04  0.941E-04    1.15      13.7  T
   5    -83.3417018 -0.454288E-07  0.363E-04    1.15      35.6  T
   6    -83.3417018 -0.130032E-08  0.180E-04    1.15      71.9  T
     SCC iter.                  ...        0 min,  0.016 sec
     gradient                   ...        0 min,  0.028 sec
 * total energy  :   -82.2716526 Eh     change       -0.2279554E-04 Eh
   gradient norm :     0.0011188 Eh/α   predicted    -0.8700076E-05 ( -61.83%)
   displ. norm   :     0.1747876 α      lambda       -0.1315506E-04
   maximum displ.:     0.1278739 α      in ANC's #3, #4, #2, ...

........................................................................
.............................. CYCLE   38 ..............................
........................................................................
   1    -83.3417582 -0.833418E+02  0.166E-02    1.15       0.0  T
   2    -83.3417580  0.151257E-06  0.999E-03    1.15       1.3  T
   3    -83.3417466  0.114426E-04  0.131E-02    1.15       1.0  T
   4    -83.3417582 -0.116287E-04  0.822E-04    1.15      15.7  T
   5    -83.3417582 -0.316699E-07  0.309E-04    1.15      41.8  T
   6    -83.3417582 -0.389491E-09  0.168E-04    1.15      76.6  T
     SCC iter.                  ...        0 min,  0.016 sec
     gradient                   ...        0 min,  0.028 sec
 * total energy  :   -82.2716708 Eh     change       -0.1813241E-04 Eh
   gradient norm :     0.0008915 Eh/α   predicted    -0.6670187E-05 ( -63.21%)
   displ. norm   :     0.1532609 α      lambda       -0.1131910E-04
   maximum displ.:     0.1125480 α      in ANC's #3, #4, #2, ...

........................................................................
.............................. CYCLE   39 ..............................
........................................................................
   1    -83.3418587 -0.833419E+02  0.135E-02    1.15       0.0  T
   2    -83.3418588 -0.647563E-08  0.813E-03    1.15       1.6  T
   3    -83.3418577  0.100432E-05  0.398E-03    1.15       3.2  T
   4    -83.3418587 -0.962068E-06  0.103E-03    1.15      12.6  T
   5    -83.3418588 -0.686343E-07  0.257E-04    1.15      50.3  T
   6    -83.3418588 -0.593403E-09  0.130E-04    1.15      99.2  T
     SCC iter.                  ...        0 min,  0.017 sec
     gradient                   ...        0 min,  0.028 sec
 * total energy  :   -82.2716867 Eh     change       -0.1598275E-04 Eh
   gradient norm :     0.0007800 Eh/α   predicted    -0.5721184E-05 ( -64.20%)
   displ. norm   :     0.1588113 α      lambda       -0.1212017E-04
   maximum displ.:     0.1163111 α      in ANC's #3, #4, #2, ...

........................................................................
.............................. CYCLE   40 ..............................
........................................................................
   1    -83.3419084 -0.833419E+02  0.138E-02    1.15       0.0  T
   2    -83.3419082  0.175700E-06  0.850E-03    1.15       1.5  T
   3    -83.3418967  0.114755E-04  0.132E-02    1.15       1.0  T
   4    -83.3419084 -0.116903E-04  0.624E-04    1.15      20.7  T
   5    -83.3419084 -0.182918E-07  0.257E-04    1.15      50.3  T
   6    -83.3419084 -0.245393E-09  0.132E-04    1.15      98.0  T
     SCC iter.                  ...        0 min,  0.016 sec
     gradient                   ...        0 min,  0.028 sec
 * total energy  :   -82.2717040 Eh     change       -0.1726316E-04 Eh
   gradient norm :     0.0007431 Eh/α   predicted    -0.6129770E-05 ( -64.49%)
   displ. norm   :     0.1880467 α      lambda       -0.1446800E-04
   maximum displ.:     0.1368514 α      in ANC's #3, #4, #2, ...

........................................................................
.............................. CYCLE   41 ..............................
........................................................................
   1    -83.3418884 -0.833419E+02  0.162E-02    1.15       0.0  T
   2    -83.3418876  0.773629E-06  0.104E-02    1.15       1.2  T
   3    -83.3418610  0.265820E-04  0.203E-02    1.15       1.0  T
   4    -83.3418885 -0.274861E-04  0.708E-04    1.15      18.2  T
   5    -83.3418885 -0.260327E-07  0.317E-04    1.15      40.8  T
   6    -83.3418885 -0.296694E-09  0.203E-04    1.15      63.7  T
     SCC iter.                  ...        0 min,  0.016 sec
     gradient                   ...        0 min,  0.028 sec
 * total energy  :   -82.2717243 Eh     change       -0.2029257E-04 Eh
   gradient norm :     0.0005562 Eh/α   predicted    -0.7350087E-05 ( -63.78%)
   displ. norm   :     0.2298737 α      lambda       -0.1654634E-04
   maximum displ.:     0.1665107 α      in ANC's #3, #4, #2, ...

........................................................................
.............................. CYCLE   42 ..............................
........................................................................
   1    -83.3418188 -0.833418E+02  0.202E-02    1.15       0.0  T
   2    -83.3418175  0.125073E-05  0.130E-02    1.15       1.0  T
   3    -83.3417758  0.417809E-04  0.255E-02    1.15       1.0  T
   4    -83.3418190 -0.432547E-04  0.795E-04    1.15      16.2  T
   5    -83.3418190 -0.244477E-07  0.394E-04    1.15      32.8  T
   6    -83.3418190 -0.104988E-08  0.208E-04    1.15      62.0  T
     SCC iter.                  ...        0 min,  0.016 sec
     gradient                   ...        0 min,  0.028 sec
 * total energy  :   -82.2717469 Eh     change       -0.2262222E-04 Eh
   gradient norm :     0.0003629 Eh/α   predicted    -0.8471160E-05 ( -62.55%)
   displ. norm   :     0.2540539 α      lambda       -0.1593803E-04
   maximum displ.:     0.1839226 α      in ANC's #3, #4, #2, ...
 * RMSD in coord.:     0.3239237 α      energy gain  -0.3866964E-03 Eh

generating ANC from model Hessian ...
Using Lindh-Hessian (1995)
 Shifting diagonal of input Hessian by    1.0295064473027674E-002
 Lowest  eigenvalues of input Hessian
    0.010000    0.000000    0.000000    0.000000    0.000000    0.000000
    0.000000    0.010375    0.010412    0.010428    0.010991    0.011939
    0.012668    0.013239    0.013568    0.013629    0.014849    0.015429
 Highest eigenvalues
    1.721793    1.885645    1.900849    1.915084    8.595996    8.672657


........................................................................
.............................. CYCLE   43 ..............................
........................................................................
   1    -83.3417013 -0.833417E+02  0.222E-02    1.15       0.0  T
   2    -83.3416995  0.185237E-05  0.144E-02    1.15       1.0  T
   3    -83.3416476  0.518412E-04  0.286E-02    1.15       1.0  T
   4    -83.3417016 -0.540031E-04  0.878E-04    1.15      14.7  T
   5    -83.3417017 -0.338311E-07  0.458E-04    1.15      28.2  T
   6    -83.3417017 -0.136050E-08  0.276E-04    1.15      46.7  T
     SCC iter.                  ...        0 min,  0.016 sec
     gradient                   ...        0 min,  0.028 sec
 * total energy  :   -82.2717682 Eh     change       -0.2124648E-04 Eh
   gradient norm :     0.0003595 Eh/α   predicted     0.0000000E+00 (-100.00%)
   displ. norm   :     0.0174419 α      lambda       -0.1644991E-05
   maximum displ.:     0.0135862 α      in ANC's #3, #1, #5, ...

........................................................................
.............................. CYCLE   44 ..............................
........................................................................
   1    -83.3419290 -0.833419E+02  0.264E-03    1.15       0.0  T
   2    -83.3419290  0.202580E-08  0.160E-03    1.15       8.1  T
   3    -83.3419287  0.327031E-06  0.227E-03    1.15       5.7  T
   4    -83.3419290 -0.326312E-06  0.383E-04    1.15      33.7  T
   5    -83.3419290 -0.922292E-08  0.981E-05    1.15     131.6  T
     SCC iter.                  ...        0 min,  0.014 sec
     gradient                   ...        0 min,  0.028 sec
 * total energy  :   -82.2717705 Eh     change       -0.2300539E-05 Eh
   gradient norm :     0.0003014 Eh/α   predicted    -0.8873178E-06 ( -61.43%)
   displ. norm   :     0.0431428 α      lambda       -0.3496014E-05
   maximum displ.:     0.0299249 α      in ANC's #3, #1, #5, ...

   *** GEOMETRY OPTIMIZATION CONVERGED AFTER 44 ITERATIONS ***

------------------------------------------------------------------------
 total energy gain   :        -0.1769386 Eh     -111.0306 kcal/mol
 total RMSD          :         0.3518819 a0        0.1862 Å
 total power (kW/mol):       -10.5580032 (step) -192.3735 (real)
------------------------------------------------------------------------

 ANCopt (total)                0 d,  0 h,  0 min,  2.415 sec
 optimizer setup                ...        0 min,  0.000 sec (  0.005%)
 model hessian                  ...        0 min,  0.095 sec (  3.927%)
 ANC generation                 ...        0 min,  0.008 sec (  0.337%)
 coordinate transformation      ...        0 min,  0.001 sec (  0.028%)
 single point calculation       ...        0 min,  2.294 sec ( 95.008%)
 optimization log               ...        0 min,  0.011 sec (  0.446%)
 hessian update                 ...        0 min,  0.001 sec (  0.042%)
 rational function              ...        0 min,  0.003 sec (  0.135%)

================
 final structure:
================
60
 xtb: 6.5.0 (homebrew)
C            3.63118005609133      -37.62441906405926       15.87363037333603
C            3.75155940730053      -38.10164530193632       17.31913267265769
O            3.31663690724935      -37.06914136860100       18.20147247575103
C            2.81029031965762      -39.29430607115425       17.53330267536409
C            5.21899057806119      -38.38995777462726       17.80245727612375
C            5.61094543729649      -39.86569728260768       17.82512595283380
C            6.27181067603347      -37.60302801324639       17.01109808909896
O            5.22928193557385      -37.87559062389384       19.13263681558904
B            4.15010959494990      -37.04479624270026       19.29247103494725
C            3.87422366145364      -36.23561138746945       20.57637327853238
C            4.87985280228883      -36.08951990893785       21.54801845761176
C            4.90040368872742      -35.30246880261377       22.65338563989899
H            5.79788793093858      -35.27700966864079       23.25358108739705
C            3.84902888599809      -34.24570454331883       23.00379710496675
H            4.08793607512310      -33.85370967209512       23.99510980813995
C            2.46848476168336      -34.85657073905326       23.07954605293449
B            1.73513366436382      -34.87279330655521       24.45603432326379
O            2.23869558448846      -34.30576946375404       25.59429813505207
C            1.40936324168265      -34.66872427637134       26.69658283090142
C            1.22063088851407      -33.46095762016850       27.61203099975977
C            2.15145915301813      -35.76962636711005       27.46523180822924
C            0.09659143170246      -35.18488793316052       26.00094363014123
C           -0.98947608913456      -34.10660616616391       25.89638674869729
C           -0.50840462908645      -36.44316709919179       26.62020054216005
O            0.52588935084323      -35.47218028000843       24.67077651324541
C            1.91187326302723      -35.41577829070911       22.00470159801067
C            2.52884103887978      -35.49990409821726       20.65182354169386
H            1.83928782820129      -35.98969235177510       19.96270299194946
C            3.00014691452087      -34.20966184732625       20.02791314249183
C            3.63894783186869      -33.16521320642713       20.68828700126321
C            3.94590039431446      -33.08615696174929       22.01324667128832
H            4.47791201515648      -32.21608981797417       22.36879380828137
H            2.58046121507700      -37.47143613226910       15.63966870095406
H            4.03685067409981      -38.37166993711136       15.19694979513668
H            4.14927476201538      -36.68244797557973       15.72565228839127
H            1.79092314066986      -38.96893095520991       17.33794470671783
H            2.86276324109499      -39.63249118085134       18.56522087213757
H            3.05427075498056      -40.11357076325802       16.86377781063027
H            5.52021356728538      -40.29458830426550       16.83081404646921
H            4.99254986426915      -40.42458412881896       18.51993356470707
H            6.64436004688442      -39.95008252950850       18.15208597733132
H            6.35396040007621      -37.97102741017394       15.99280050134379
H            7.23264852126915      -37.71703084093899       17.50782371671890
H            6.02267765127217      -36.54476489926616       17.00217860854904
H            5.74651479209241      -36.71730771315282       21.36893213173707
H            2.18010332413930      -33.19833946475116       28.05074509560191
H            0.52298599357776      -33.69977109838470       28.41016455161911
H            0.85791625531457      -32.60124514127945       27.05806786830569
H            3.11856055289831      -35.38102511303316       27.77622185781631
H            2.32675873665433      -36.62580290509579       26.81870682233024
H            1.59525963646193      -36.07888491468676       28.34499173583825
H           -1.39448551829851      -33.86005958796894       26.87326490407139
H           -1.79063474841201      -34.48502954940680       25.26577555344543
H           -0.58777213323157      -33.21247462814389       25.42658229502172
H           -0.76905208764012      -36.26393352064843       27.65978034912384
H            0.17868252979408      -37.28058820248425       26.55675434708305
H           -1.40939450502080      -36.70569658284824       26.07141049234000
H            0.93345493541866      -35.86483565225124       22.11063407381416
H            2.95410142719256      -34.18602037665443       18.95006458959402
H            3.88837236928315      -32.30698494032233       20.07178966157410

 Bond Distances (Angstroems)
 ---------------------------
C1-C2=1.5270         C1-H33=1.0873        C1-H34=1.0867        C1-H35=1.0852        C2-C1=1.5270         C2-O3=1.4261         
C2-C4=1.5344         C2-C5=1.5716         O3-C2=1.4261         O3-B9=1.3732         C4-C2=1.5344         C4-H36=1.0877        
C4-H37=1.0872        C4-H38=1.0858        C5-C2=1.5716         C5-C6=1.5271         C5-C7=1.5343         C5-O8=1.4262         
C6-C5=1.5271         C6-H39=1.0867        C6-H40=1.0851        C6-H41=1.0872        C7-C5=1.5343         C7-H42=1.0859        
C7-H43=1.0876        C7-H44=1.0872        O8-C5=1.4262         O8-B9=1.3713         B9-O3=1.3732         B9-O8=1.3713         
B9-C10=1.5425        C10-B9=1.5425        C10-C11=1.4060       C10-C27=1.5353       C11-C10=1.4060       C11-C12=1.3571       
C11-H45=1.0850       C12-C11=1.3571       C12-H13=1.0800       C12-C14=1.5313       H13-C12=1.0800       C14-C12=1.5313       
C14-H15=1.0924       C14-C16=1.5116       C14-C31=1.5281       H15-C14=1.0924       C16-C14=1.5116       C16-B17=1.5597       
C16-C26=1.3333       B17-C16=1.5597       B17-O18=1.3677       B17-O25=1.3666       O18-B17=1.3677       O18-C19=1.4264       
C19-O18=1.4264       C19-C20=1.5272       C19-C21=1.5341       C19-C22=1.5728       C20-C19=1.5272       C20-H46=1.0872       
C20-H47=1.0866       C20-H48=1.0851       C21-C19=1.5341       C21-H49=1.0877       C21-H50=1.0871       C21-H51=1.0858       
C22-C19=1.5728       C22-C23=1.5340       C22-C24=1.5273       C22-O25=1.4269       C23-C22=1.5340       C23-H52=1.0859       
C23-H53=1.0875       C23-H54=1.0870       C24-C22=1.5273       C24-H55=1.0866       C24-H56=1.0851       C24-H57=1.0871       
O25-B17=1.3666       O25-C22=1.4269       C26-C16=1.3333       C26-C27=1.4893       C26-H58=1.0817       C27-C10=1.5353       
C27-C26=1.4893       C27-H28=1.0910       C27-C29=1.5087       H28-C27=1.0910       C29-C27=1.5087       C29-C30=1.3911       
C29-H59=1.0791       C30-C29=1.3911       C30-C31=1.3623       C30-H60=1.0857       C31-C14=1.5281       C31-C30=1.3623       
C31-H32=1.0800       H32-C31=1.0800       H33-C1=1.0873        H34-C1=1.0867        H35-C1=1.0852        H36-C4=1.0877        
H37-C4=1.0872        H38-C4=1.0858        H39-C6=1.0867        H40-C6=1.0851        H41-C6=1.0872        H42-C7=1.0859        
H43-C7=1.0876        H44-C7=1.0872        H45-C11=1.0850       H46-C20=1.0872       H47-C20=1.0866       H48-C20=1.0851       
H49-C21=1.0877       H50-C21=1.0871       H51-C21=1.0858       H52-C23=1.0859       H53-C23=1.0875       H54-C23=1.0870       
H55-C24=1.0866       H56-C24=1.0851       H57-C24=1.0871       H58-C26=1.0817       H59-C29=1.0791       H60-C30=1.0857       
 C  H  Rav=1.0860 sigma=0.0027  Rmin=1.0791  Rmax=1.0924    32
 C  B  Rav=1.5511 sigma=0.0086  Rmin=1.5425  Rmax=1.5597     2
 C  C  Rav=1.4926 sigma=0.0717  Rmin=1.3333  Rmax=1.5728    21
 O  B  Rav=1.3697 sigma=0.0026  Rmin=1.3666  Rmax=1.3732     4
 O  C  Rav=1.4264 sigma=0.0003  Rmin=1.4261  Rmax=1.4269     4

 selected bond angles (degree)
 --------------------
H33-C1-C2=108.90               H34-C1-C2=110.19               H34-C1-H33=108.88              H35-C1-C2=111.27               
H35-C1-H33=108.05              H35-C1-H34=109.50              O3-C2-C1=109.60                C4-C2-C1=109.07                
C4-C2-O3=106.82                C5-C2-C1=114.96                C5-C2-O3=103.14                C5-C2-C4=112.78                
B9-O3-C2=108.62                H36-C4-C2=108.50               H37-C4-C2=110.16               H37-C4-H36=107.98              
H38-C4-C2=111.26               H38-C4-H36=109.00              H38-C4-H37=109.86              C6-C5-C2=114.93                
C7-C5-C2=112.83                C7-C5-C6=109.10                O8-C5-C2=103.14                O8-C5-C6=109.44                
O8-C5-C7=106.93                H39-C6-C5=110.27               H40-C6-C5=111.16               H40-C6-H39=109.57              
H41-C6-C5=108.87               H41-C6-H39=108.90              H41-C6-H40=108.01              H42-C7-C5=111.21               
H43-C7-C5=108.47               H43-C7-H42=109.02              H44-C7-C5=110.26               H44-C7-H42=109.85              
H44-C7-H43=107.95              B9-O8-C5=108.76                O8-B9-O3=111.98                C10-B9-O3=124.20               
C10-B9-O8=123.75               C11-C10-B9=120.12              C27-C10-B9=116.68              C27-C10-C11=122.89             

 selected dihedral angles (degree)
 ---------------------------------
O3-C2-C1-H33=294.67           O3-C2-C1-H34=175.32           O3-C2-C1-H35= 53.67           C4-C2-C1-H33= 51.29           
C4-C2-C1-H34=291.93           C4-C2-C1-H35=170.28           C5-C2-C1-H33=179.09           C5-C2-C1-H34= 59.73           
C5-C2-C1-H35=298.08           B9-O3-C2-C1=219.66            B9-O3-C2-C4=101.63            B9-O3-C2-C5=342.55            
H36-C4-C2-C1=299.48           H36-C4-C2-O3= 57.85           H36-C4-C2-C5=170.46           H37-C4-C2-C1=181.46           
H37-C4-C2-O3=299.83           H37-C4-C2-C5= 52.45           H38-C4-C2-C1= 59.38           H38-C4-C2-O3=177.75           
H38-C4-C2-C5=290.36           C6-C5-C2-C1=258.89            C6-C5-C2-O3=139.64            C6-C5-C2-C4= 24.79            
C7-C5-C2-C1= 24.84            C7-C5-C2-O3=265.60            C7-C5-C2-C4=150.75            O8-C5-C2-C1=139.85            
O8-C5-C2-O3= 20.60            O8-C5-C2-C4=265.75            H39-C6-C5-C2= 59.41           H39-C6-C5-C7=291.55           
H39-C6-C5-O8=174.87           H40-C6-C5-C2=297.68           H40-C6-C5-C7=169.82           H40-C6-C5-O8= 53.15           
H41-C6-C5-C2=178.82           H41-C6-C5-C7= 50.96           H41-C6-C5-O8=294.29           H42-C7-C5-C2=290.15           
H42-C7-C5-C6= 59.18           H42-C7-C5-O8=177.44           H43-C7-C5-C2=170.26           H43-C7-C5-C6=299.29           
H43-C7-C5-O8= 57.56           H44-C7-C5-C2= 52.25           H44-C7-C5-C6=181.28           H44-C7-C5-O8=299.54           
B9-O8-C5-C2=343.30            B9-O8-C5-C6=220.52            B9-O8-C5-C7=102.48            O8-B9-O3-C2=  7.95            
C10-B9-O3-C2=190.82           O3-B9-O8-C5=  6.64            C10-B9-O8-C5=183.79           C11-C10-B9-O3=190.68          
C11-C10-B9-O8= 13.87          C27-C10-B9-O3=  4.50          C27-C10-B9-O8=187.69          
           -------------------------------------------------
          |                Final Singlepoint                |
           -------------------------------------------------

          ...................................................
          :                      SETUP                      :
          :.................................................:
          :  # basis functions                 144          :
          :  # atomic orbitals                 144          :
          :  # shells                           88          :
          :  # electrons                       150          :
          :  max. iterations                   250          :
          :  Hamiltonian                  GFN2-xTB          :
          :  restarted?                      false          :
          :  GBSA solvation                  false          :
          :  PC potential                    false          :
          :  electronic temp.          300.0000000     K    :
          :  accuracy                    1.0000000          :
          :  -> integral cutoff          0.2500000E+02      :
          :  -> integral neglect         0.1000000E-07      :
          :  -> SCF convergence          0.1000000E-05 Eh   :
          :  -> wf. convergence          0.1000000E-03 e    :
          :  Broyden damping             0.4000000          :
          ...................................................

 iter      E             dE          RMSdq      gap      omega  full diag
   1    -83.3419290 -0.833419E+02  0.373E-05    1.15       0.0  T
   2    -83.3419290  0.165699E-10  0.329E-05    1.15     392.3  T
   3    -83.3419290 -0.559197E-10  0.164E-05    1.15     787.1  T

   *** convergence criteria satisfied after 3 iterations ***

         #    Occupation            Energy/Eh            Energy/eV
      -------------------------------------------------------------
         1        2.0000           -0.6869245             -18.6922
       ...           ...                  ...                  ...
        69        2.0000           -0.4000852             -10.8869
        70        2.0000           -0.3990610             -10.8590
        71        2.0000           -0.3962968             -10.7838
        72        2.0000           -0.3958467             -10.7715
        73        2.0000           -0.3901777             -10.6173
        74        2.0000           -0.3664098              -9.9705
        75        2.0000           -0.3241562              -8.8207 (HOMO)
        76                         -0.2819090              -7.6711 (LUMO)
        77                         -0.2179177              -5.9298
        78                         -0.1826865              -4.9712
        79                         -0.1518909              -4.1332
        80                         -0.0939102              -2.5554
       ...                                ...                  ...
       144                          0.6746085              18.3570
      -------------------------------------------------------------
                  HL-Gap            0.0422472 Eh            1.1496 eV
             Fermi-level           -0.3030326 Eh           -8.2459 eV

 SCC (total)                   0 d,  0 h,  0 min,  0.044 sec
 SCC setup                      ...        0 min,  0.000 sec (  0.545%)
 Dispersion                     ...        0 min,  0.000 sec (  0.947%)
 classical contributions        ...        0 min,  0.000 sec (  0.416%)
 integral evaluation            ...        0 min,  0.006 sec ( 14.407%)
 iterations                     ...        0 min,  0.009 sec ( 20.109%)
 molecular gradient             ...        0 min,  0.028 sec ( 62.775%)
 printout                       ...        0 min,  0.000 sec (  0.789%)

         :::::::::::::::::::::::::::::::::::::::::::::::::::::
         ::                     SUMMARY                     ::
         :::::::::::::::::::::::::::::::::::::::::::::::::::::
         :: total energy             -82.271770460752 Eh    ::
         :: gradient norm              0.000301374964 Eh/a0 ::
         :: HOMO-LUMO gap              1.149603998709 eV    ::
         ::.................................................::
         :: SCC energy               -83.341929006796 Eh    ::
         :: -> isotropic ES            0.147684071978 Eh    ::
         :: -> anisotropic ES          0.012375977918 Eh    ::
         :: -> anisotropic XC          0.027876763645 Eh    ::
         :: -> dispersion             -0.062499498414 Eh    ::
         :: repulsion energy           1.069215724583 Eh    ::
         :: add. restraining           0.000209248745 Eh    ::
         :: total charge              -0.000000000000 e     ::
         :::::::::::::::::::::::::::::::::::::::::::::::::::::

           -------------------------------------------------
          |                Property Printout                |
           -------------------------------------------------

    * Orbital Energies and Occupations

         #    Occupation            Energy/Eh            Energy/eV
      -------------------------------------------------------------
         1        2.0000           -0.6869245             -18.6922
       ...           ...                  ...                  ...
        63        2.0000           -0.4358336             -11.8596
        64        2.0000           -0.4311776             -11.7329
        65        2.0000           -0.4220225             -11.4838
        66        2.0000           -0.4195706             -11.4171
        67        2.0000           -0.4166472             -11.3375
        68        2.0000           -0.4144302             -11.2772
        69        2.0000           -0.4000852             -10.8869
        70        2.0000           -0.3990610             -10.8590
        71        2.0000           -0.3962968             -10.7838
        72        2.0000           -0.3958467             -10.7715
        73        2.0000           -0.3901777             -10.6173
        74        2.0000           -0.3664098              -9.9705
        75        2.0000           -0.3241562              -8.8207 (HOMO)
        76                         -0.2819090              -7.6711 (LUMO)
        77                         -0.2179177              -5.9298
        78                         -0.1826865              -4.9712
        79                         -0.1518909              -4.1332
        80                         -0.0939102              -2.5554
        81                         -0.0889744              -2.4211
        82                          0.0103676               0.2821
        83                          0.0132445               0.3604
        84                          0.0292174               0.7950
        85                          0.0298917               0.8134
        86                          0.0576316               1.5682
       ...                                ...                  ...
       144                          0.6746085              18.3570
      -------------------------------------------------------------
                  HL-Gap            0.0422472 Eh            1.1496 eV
             Fermi-level           -0.3030326 Eh           -8.2459 eV

     #   Z          covCN         q      C6AA      α(0)
     1   6 C        3.755    -0.116    22.786     6.806
     2   6 C        3.859     0.130    18.439     6.107
     3   8 O        1.638    -0.379    20.454     6.105
     4   6 C        3.755    -0.116    22.771     6.804
     5   6 C        3.858     0.130    18.441     6.107
     6   6 C        3.755    -0.117    22.797     6.808
     7   6 C        3.755    -0.115    22.757     6.802
     8   8 O        1.638    -0.375    20.386     6.095
     9   5 B        2.658     0.429    15.596     6.650
    10   6 C        2.934    -0.078    29.947     8.975
    11   6 C        2.891    -0.034    28.853     8.807
    12   6 C        2.892    -0.038    28.937     8.820
    13   1 H        0.926     0.028     2.617     2.530
    14   6 C        3.859    -0.018    20.851     6.494
    15   1 H        0.924     0.046     2.371     2.408
    16   6 C        2.867    -0.081    30.021     8.981
    17   5 B        2.659     0.431    15.576     6.645
    18   8 O        1.638    -0.370    20.281     6.079
    19   6 C        3.859     0.129    18.460     6.110
    20   6 C        3.755    -0.117    22.797     6.808
    21   6 C        3.755    -0.116    22.776     6.805
    22   6 C        3.859     0.129    18.459     6.110
    23   6 C        3.755    -0.116    22.783     6.806
    24   6 C        3.755    -0.117    22.805     6.809
    25   8 O        1.638    -0.370    20.292     6.081
    26   6 C        2.897    -0.028    28.688     8.782
    27   6 C        3.858    -0.008    20.684     6.468
    28   1 H        0.924     0.049     2.337     2.391
    29   6 C        2.962    -0.022    28.557     8.765
    30   6 C        2.888    -0.033    28.809     8.800
    31   6 C        2.893    -0.031    28.781     8.796
    32   1 H        0.926     0.030     2.584     2.514
    33   1 H        0.925     0.054     2.275     2.359
    34   1 H        0.925     0.039     2.463     2.454
    35   1 H        0.925     0.051     2.312     2.378
    36   1 H        0.925     0.051     2.304     2.374
    37   1 H        0.925     0.043     2.404     2.425
    38   1 H        0.925     0.042     2.426     2.436
    39   1 H        0.925     0.039     2.461     2.453
    40   1 H        0.925     0.052     2.295     2.369
    41   1 H        0.925     0.054     2.274     2.358
    42   1 H        0.925     0.042     2.423     2.434
    43   1 H        0.925     0.051     2.303     2.373
    44   1 H        0.925     0.042     2.421     2.433
    45   1 H        0.925     0.037     2.494     2.470
    46   1 H        0.925     0.054     2.271     2.356
    47   1 H        0.925     0.039     2.456     2.451
    48   1 H        0.925     0.052     2.299     2.371
    49   1 H        0.925     0.052     2.296     2.369
    50   1 H        0.925     0.044     2.398     2.422
    51   1 H        0.925     0.042     2.421     2.433
    52   1 H        0.925     0.042     2.416     2.431
    53   1 H        0.925     0.052     2.291     2.367
    54   1 H        0.925     0.044     2.400     2.423
    55   1 H        0.925     0.040     2.453     2.449
    56   1 H        0.925     0.052     2.296     2.369
    57   1 H        0.925     0.054     2.266     2.354
    58   1 H        0.925     0.037     2.491     2.468
    59   1 H        0.926     0.038     2.479     2.462
    60   1 H        0.925     0.028     2.619     2.531

 Mol. C6AA /au·bohr⁶  :      33349.000172
 Mol. C8AA /au·bohr⁸  :     773798.370951
 Mol. α(0) /au        :        277.638775


Wiberg/Mayer (AO) data.
largest (>0.10) Wiberg bond orders for each atom

 ---------------------------------------------------------------------------
     #   Z sym  total        # sym  WBO       # sym  WBO       # sym  WBO
 ---------------------------------------------------------------------------
     1   6 C    3.994 --     2 C    0.997    34 H    0.985    33 H    0.983
                            35 H    0.982
     2   6 C    3.944 --     1 C    0.997     4 C    0.990     3 O    0.955
                             5 C    0.937
     3   8 O    2.214 --     9 B    1.108     2 C    0.955
     4   6 C    3.994 --     2 C    0.990    38 H    0.984    37 H    0.984
                            36 H    0.983
     5   6 C    3.943 --     6 C    0.996     7 C    0.990     8 O    0.955
                             2 C    0.937
     6   6 C    3.994 --     5 C    0.996    39 H    0.985    41 H    0.983
                            40 H    0.982
     7   6 C    3.994 --     5 C    0.990    42 H    0.984    44 H    0.984
                            43 H    0.983
     8   8 O    2.220 --     9 B    1.114     5 C    0.955
     9   5 B    3.391 --     8 O    1.114     3 O    1.108    10 C    1.035
    10   6 C    3.923 --    11 C    1.324     9 B    1.035    27 C    0.931
                            29 C    0.343    31 C    0.163
    11   6 C    3.992 --    12 C    1.625    10 C    1.324    45 H    0.958
    12   6 C    3.973 --    11 C    1.625    14 C    0.973    13 H    0.971
                            31 C    0.159    29 C    0.147
    13   1 H    0.999 --    12 C    0.971
    14   6 C    3.994 --    16 C    0.987    31 C    0.981    12 C    0.973
                            15 H    0.972
    15   1 H    0.998 --    14 C    0.972
    16   6 C    3.976 --    26 C    1.851    17 B    0.999    14 C    0.987
    17   5 B    3.376 --    25 O    1.131    18 O    1.129    16 C    0.999
    18   8 O    2.235 --    17 B    1.129    19 C    0.954
    19   6 C    3.943 --    20 C    0.996    21 C    0.991    18 O    0.954
                            22 C    0.936
    20   6 C    3.994 --    19 C    0.996    47 H    0.985    46 H    0.983
                            48 H    0.982
    21   6 C    3.994 --    19 C    0.991    51 H    0.984    50 H    0.984
                            49 H    0.983
    22   6 C    3.943 --    24 C    0.996    23 C    0.991    25 O    0.953
                            19 C    0.936
    23   6 C    3.995 --    22 C    0.991    52 H    0.984    54 H    0.984
                            53 H    0.983
    24   6 C    3.994 --    22 C    0.996    55 H    0.985    57 H    0.983
                            56 H    0.982
    25   8 O    2.236 --    17 B    1.131    22 C    0.953
    26   6 C    3.987 --    16 C    1.851    27 C    1.021    58 H    0.966
    27   6 C    3.991 --    26 C    1.021    29 C    0.981    28 H    0.968
                            10 C    0.931
    28   1 H    0.997 --    27 C    0.968
    29   6 C    3.941 --    30 C    1.381    27 C    0.981    59 H    0.973
                            10 C    0.343    12 C    0.147
    30   6 C    3.993 --    31 C    1.584    29 C    1.381    60 H    0.961
    31   6 C    3.957 --    30 C    1.584    14 C    0.981    32 H    0.973
                            10 C    0.163    12 C    0.159
    32   1 H    0.999 --    31 C    0.973
    33   1 H    0.997 --     1 C    0.983
    34   1 H    0.998 --     1 C    0.985
    35   1 H    0.997 --     1 C    0.982
    36   1 H    0.997 --     4 C    0.983
    37   1 H    0.998 --     4 C    0.984
    38   1 H    0.998 --     4 C    0.984
    39   1 H    0.998 --     6 C    0.985
    40   1 H    0.997 --     6 C    0.982
    41   1 H    0.997 --     6 C    0.983
    42   1 H    0.998 --     7 C    0.984
    43   1 H    0.997 --     7 C    0.983
    44   1 H    0.998 --     7 C    0.984
    45   1 H    0.998 --    11 C    0.958
    46   1 H    0.997 --    20 C    0.983
    47   1 H    0.998 --    20 C    0.985
    48   1 H    0.997 --    20 C    0.982
    49   1 H    0.997 --    21 C    0.983
    50   1 H    0.998 --    21 C    0.984
    51   1 H    0.998 --    21 C    0.984
    52   1 H    0.998 --    23 C    0.984
    53   1 H    0.997 --    23 C    0.983
    54   1 H    0.998 --    23 C    0.984
    55   1 H    0.998 --    24 C    0.985
    56   1 H    0.997 --    24 C    0.982
    57   1 H    0.997 --    24 C    0.983
    58   1 H    0.998 --    26 C    0.966
    59   1 H    0.998 --    29 C    0.973
    60   1 H    0.999 --    30 C    0.961
 ---------------------------------------------------------------------------

Topologies differ in total number of bonds
Writing topology from bond orders to xtbtopo.mol

molecular dipole:
                 x           y           z       tot (Debye)
 q only:       -0.291      -0.288       0.057
   full:       -0.125      -0.340      -0.085       0.945
molecular quadrupole (traceless):
                xx          xy          yy          xz          yz          zz
 q only:      -34.371      24.776      31.362     -29.340     -14.813       3.009
  q+dip:      -31.127       9.207      41.008     -20.609      -1.539      -9.881
   full:      -31.198       8.250      42.326     -22.033      -2.918     -11.129

           -------------------------------------------------
          |                Geometry Summary                 |
           -------------------------------------------------

      molecular mass/u    :      382.1099696
   center of mass at/Å    :        2.9412269     -35.9426398      21.8360646
  moments of inertia/u·Å² :        0.1206378E+04   0.6857892E+04   0.7104897E+04
rotational constants/cm⁻¹ :        0.1397376E-01   0.2458136E-02   0.2372678E-02

 * 55 selected distances

     #   Z          #   Z                                           value/Å
     1   6 C        2   6 C                                       1.5269949
     2   6 C        3   8 O                                       1.4260946
     2   6 C        4   6 C                                       1.5343717
     5   6 C        6   6 C                                       1.5270724
     5   6 C        7   6 C                                       1.5342550
     5   6 C        8   8 O                                       1.4262039
     3   8 O        9   5 B                                       1.3731524
     8   8 O        9   5 B                                       1.3712693
     9   5 B       10   6 C                                       1.5424975
    10   6 C       11   6 C                                       1.4059614
    11   6 C       12   6 C                                       1.3570957
    12   6 C       13   1 H                                       1.0799819
    14   6 C       15   1 H                                       1.0924458
    16   6 C       17   5 B                                       1.5597395 (max)
    17   5 B       18   8 O                                       1.3677483
    18   8 O       19   6 C                                       1.4263801
    19   6 C       20   6 C                                       1.5272086
    19   6 C       21   6 C                                       1.5341165
    22   6 C       23   6 C                                       1.5340035
    22   6 C       24   6 C                                       1.5273396
    17   5 B       25   8 O                                       1.3666203
    22   6 C       25   8 O                                       1.4269473
    16   6 C       26   6 C                                       1.3333493
    27   6 C       28   1 H                                       1.0909920
    29   6 C       30   6 C                                       1.3910548
    30   6 C       31   6 C                                       1.3623466
    31   6 C       32   1 H                                       1.0800311
     1   6 C       33   1 H                                       1.0872682
     1   6 C       34   1 H                                       1.0866689
     1   6 C       35   1 H                                       1.0851863
     4   6 C       36   1 H                                       1.0877239
     4   6 C       37   1 H                                       1.0871881
     4   6 C       38   1 H                                       1.0858107
     6   6 C       39   1 H                                       1.0866629
     6   6 C       40   1 H                                       1.0851384
     6   6 C       41   1 H                                       1.0871843
     7   6 C       42   1 H                                       1.0858648
     7   6 C       43   1 H                                       1.0876316
     7   6 C       44   1 H                                       1.0872294
    11   6 C       45   1 H                                       1.0850312
    20   6 C       46   1 H                                       1.0872102
    20   6 C       47   1 H                                       1.0866267
    20   6 C       48   1 H                                       1.0851465
    21   6 C       49   1 H                                       1.0876631
    21   6 C       50   1 H                                       1.0870892
    21   6 C       51   1 H                                       1.0858068
    23   6 C       52   1 H                                       1.0858679
    23   6 C       53   1 H                                       1.0875340
    23   6 C       54   1 H                                       1.0869930
    24   6 C       55   1 H                                       1.0866408
    24   6 C       56   1 H                                       1.0850753
    24   6 C       57   1 H                                       1.0871408
    26   6 C       58   1 H                                       1.0817471
    29   6 C       59   1 H                                       1.0790907 (min)
    30   6 C       60   1 H                                       1.0857429

 * 5 distinct bonds (by element types)

   Z      Z             #   av. dist./Å        max./Å        min./Å
   1 H    6 C          32     1.0860442     1.0924458     1.0790907
   5 B    6 C           2     1.5511185     1.5597395     1.5424975
   6 C    6 C          13     1.4688592     1.5343717     1.3333493
   5 B    8 O           4     1.3696976     1.3731524     1.3666203
   6 C    8 O           4     1.4264065     1.4269473     1.4260946


optimized geometry written to: xtbopt.xyz


           -------------------------------------------------
          | TOTAL ENERGY              -82.271770460752 Eh   |
          | GRADIENT NORM               0.000301374964 Eh/α |
          | HOMO-LUMO GAP               1.149603998709 eV   |
           -------------------------------------------------

------------------------------------------------------------------------
 * finished run on 2022/07/09 at 18:33:31.173     
------------------------------------------------------------------------
 total:
 * wall-time:     0 d,  0 h,  0 min,  2.547 sec
 *  cpu-time:     0 d,  0 h,  0 min,  2.543 sec
 * ratio c/w:     0.998 speedup
 SCF:
 * wall-time:     0 d,  0 h,  0 min,  0.075 sec
 *  cpu-time:     0 d,  0 h,  0 min,  0.075 sec
 * ratio c/w:     0.999 speedup
 ANC optimizer:
 * wall-time:     0 d,  0 h,  0 min,  2.460 sec
 *  cpu-time:     0 d,  0 h,  0 min,  2.456 sec
 * ratio c/w:     0.998 speedup

