      -----------------------------------------------------------      
     |                   =====================                   |     
     |                           x T B                           |     
     |                   =====================                   |     
     |                         S. Grimme                         |     
     |          Mulliken Center for Theoretical Chemistry        |     
     |                    University of Bonn                     |     
      -----------------------------------------------------------      

   * xtb version 6.5.0 (homebrew) compiled by 'nhattrup@GPGGRP-SHANNON.CHEME.CMU.EDU' on 

   xtb is free software: you can redistribute it and/or modify it under
   the terms of the GNU Lesser General Public License as published by
   the Free Software Foundation, either version 3 of the License, or
   (at your option) any later version.
   
   xtb is distributed in the hope that it will be useful,
   but WITHOUT ANY WARRANTY; without even the implied warranty of
   MERCHANTABILITY or FITNESS FOR A PARTICULAR PURPOSE.  See the
   GNU Lesser General Public License for more details.
   
   Cite this work as:
   * C. Bannwarth, E. Caldeweyher, S. Ehlert, A. Hansen, P. Pracht,
     J. Seibert, S. Spicher, S. Grimme, WIREs Comput. Mol. Sci., 2020, 11,
     e01493. DOI: 10.1002/wcms.1493
   
   for GFN2-xTB:
   * C. Bannwarth, S. Ehlert and S. Grimme., J. Chem. Theory Comput., 2019,
     15, 1652-1671. DOI: 10.1021/acs.jctc.8b01176
   for GFN1-xTB:
   * S. Grimme, C. Bannwarth, P. Shushkov, J. Chem. Theory Comput., 2017,
     13, 1989-2009. DOI: 10.1021/acs.jctc.7b00118
   for GFN0-xTB:
   * P. Pracht, E. Caldeweyher, S. Ehlert, S. Grimme, ChemRxiv, 2019, preprint.
     DOI: 10.26434/chemrxiv.8326202.v1
   for GFN-FF:
   * S. Spicher and S. Grimme, Angew. Chem. Int. Ed., 2020, 59, 15665-15673.
     DOI: 10.1002/anie.202004239
   
   for ALPB and GBSA implicit solvation:
   * S. Ehlert, M. Stahn, S. Spicher, S. Grimme, J. Chem. Theory Comput.,
     2021, 17, 4250-4261. DOI: 10.1021/acs.jctc.1c00471
   
   for DFT-D4:
   * E. Caldeweyher, C. Bannwarth and S. Grimme, J. Chem. Phys., 2017,
     147, 034112. DOI: 10.1063/1.4993215
   * E. Caldeweyher, S. Ehlert, A. Hansen, H. Neugebauer, S. Spicher,
     C. Bannwarth and S. Grimme, J. Chem. Phys., 2019, 150, 154122.
     DOI: 10.1063/1.5090222
   * E. Caldeweyher, J.-M. Mewes, S. Ehlert and S. Grimme, Phys. Chem. Chem. Phys.
     2020, 22, 8499-8512. DOI: 10.1039/D0CP00502A
   
   for sTDA-xTB:
   * S. Grimme and C. Bannwarth, J. Chem. Phys., 2016, 145, 054103.
     DOI: 10.1063/1.4959605
   
   in the mass-spec context:
   * V. Asgeirsson, C. Bauer and S. Grimme, Chem. Sci., 2017, 8, 4879.
     DOI: 10.1039/c7sc00601b
   * J. Koopman and S. Grimme, ACS Omega 2019, 4, 12, 15120-15133.
     DOI: 10.1021/acsomega.9b02011
   
   for metadynamics refer to:
   * S. Grimme, J. Chem. Theory Comput., 2019, 155, 2847-2862
     DOI: 10.1021/acs.jctc.9b00143
   
   for SPH calculations refer to:
   * S. Spicher and S. Grimme, J. Chem. Theory Comput., 2021, 17, 1701-1714
     DOI: 10.1021/acs.jctc.0c01306
   
   with help from (in alphabetical order)
   P. Atkinson, C. Bannwarth, F. Bohle, G. Brandenburg, E. Caldeweyher
   M. Checinski, S. Dohm, S. Ehlert, S. Ehrlich, I. Gerasimov, C. Hölzer
   A. Katbashev, J. Koopman, C. Lavigne, S. Lehtola, F. März, M. Müller,
   F. Musil, H. Neugebauer, J. Pisarek, C. Plett, P. Pracht, F. Pultar,
   J. Seibert, P. Shushkov, S. Spicher, M. Stahn, M. Steiner, T. Strunk,
   J. Stückrath, T. Rose, and J. Unsleber
   
 * started run on 2022/07/09 at 18:33:44.699     

           -------------------------------------------------
          |                Calculation Setup                |
           -------------------------------------------------

          program call               : /opt/homebrew/bin/xtb bvl_bpin2_scan_8-9_xtb.xyz --chrg 0 --uhf 0 --opt --input xcontrol_bvl_bpin2_scan_8-9_xtb
          coordinate file            : bvl_bpin2_scan_8-9_xtb.xyz
          omp threads                :                     2

   ID    Z sym.   atoms
    1    6 C      1, 2, 4-7, 10-12, 14, 16, 19-24, 26, 27, 29-31
    2    8 O      3, 8, 18, 25
    3    5 B      9, 17
    4    1 H      13, 15, 28, 32-60
constraining bond 12 31 to    2.3889000 Å, actual value:    2.2797568 Å
constraining bond 10 29 to    1.5000000 Å, actual value:    1.6086953 Å

           -------------------------------------------------
          |                 G F N 2 - x T B                 |
           -------------------------------------------------

        Reference                      10.1021/acs.jctc.8b01176
      * Hamiltonian:
        H0-scaling (s, p, d)           1.850000    2.230000    2.230000
        zeta-weighting                 0.500000
      * Dispersion:
        s8                             2.700000
        a1                             0.520000
        a2                             5.000000
        s9                             5.000000
      * Repulsion:
        kExp                           1.500000    1.000000
        rExp                           1.000000
      * Coulomb:
        alpha                          2.000000
        third order                    shell-resolved
        anisotropic                    true
        a3                             3.000000
        a5                             4.000000
        cn-shift                       1.200000
        cn-exp                         4.000000
        max-rad                        5.000000


          ...................................................
          :                      SETUP                      :
          :.................................................:
          :  # basis functions                 144          :
          :  # atomic orbitals                 144          :
          :  # shells                           88          :
          :  # electrons                       150          :
          :  max. iterations                   250          :
          :  Hamiltonian                  GFN2-xTB          :
          :  restarted?                      false          :
          :  GBSA solvation                  false          :
          :  PC potential                    false          :
          :  electronic temp.          300.0000000     K    :
          :  accuracy                    1.0000000          :
          :  -> integral cutoff          0.2500000E+02      :
          :  -> integral neglect         0.1000000E-07      :
          :  -> SCF convergence          0.1000000E-05 Eh   :
          :  -> wf. convergence          0.1000000E-03 e    :
          :  Broyden damping             0.4000000          :
          ...................................................

 iter      E             dE          RMSdq      gap      omega  full diag
   1    -82.9622873 -0.829623E+02  0.474E+00    3.66       0.0  T
   2    -83.3539068 -0.391619E+00  0.290E+00    3.13       1.0  T
   3    -83.3676525 -0.137457E-01  0.139E+00    3.53       1.0  T
   4    -83.3909237 -0.232712E-01  0.407E-01    3.34       1.0  T
   5    -83.4015339 -0.106102E-01  0.153E-01    3.42       1.0  T
   6    -83.4014698  0.641661E-04  0.930E-02    3.42       1.0  T
   7    -83.4017103 -0.240555E-03  0.303E-02    3.41       1.0  T
   8    -83.4017412 -0.308581E-04  0.120E-02    3.41       1.1  T
   9    -83.4017463 -0.514977E-05  0.542E-03    3.41       2.4  T
  10    -83.4017470 -0.690704E-06  0.256E-03    3.41       5.0  T
  11    -83.4017472 -0.127145E-06  0.760E-04    3.41      17.0  T
  12    -83.4017472 -0.196758E-07  0.319E-04    3.41      40.5  T

   *** convergence criteria satisfied after 12 iterations ***

         #    Occupation            Energy/Eh            Energy/eV
      -------------------------------------------------------------
         1        2.0000           -0.6928431             -18.8532
       ...           ...                  ...                  ...
        69        2.0000           -0.4030746             -10.9682
        70        2.0000           -0.4006899             -10.9033
        71        2.0000           -0.3980448             -10.8314
        72        2.0000           -0.3951061             -10.7514
        73        2.0000           -0.3857478             -10.4967
        74        2.0000           -0.3522270              -9.5846
        75        2.0000           -0.3491905              -9.5020 (HOMO)
        76                         -0.2239160              -6.0931 (LUMO)
        77                         -0.1930873              -5.2542
        78                         -0.1833502              -4.9892
        79                         -0.1445022              -3.9321
        80                         -0.0946706              -2.5761
       ...                                ...                  ...
       144                          0.6812452              18.5376
      -------------------------------------------------------------
                  HL-Gap            0.1252744 Eh            3.4089 eV
             Fermi-level           -0.2865533 Eh           -7.7975 eV

 SCC (total)                   0 d,  0 h,  0 min,  0.091 sec
 SCC setup                      ...        0 min,  0.000 sec (  0.231%)
 Dispersion                     ...        0 min,  0.000 sec (  0.405%)
 classical contributions        ...        0 min,  0.000 sec (  0.153%)
 integral evaluation            ...        0 min,  0.003 sec (  3.697%)
 iterations                     ...        0 min,  0.070 sec ( 76.990%)
 molecular gradient             ...        0 min,  0.017 sec ( 18.201%)
 printout                       ...        0 min,  0.000 sec (  0.317%)

         :::::::::::::::::::::::::::::::::::::::::::::::::::::
         ::                     SUMMARY                     ::
         :::::::::::::::::::::::::::::::::::::::::::::::::::::
         :: total energy             -82.149303068710 Eh    ::
         :: gradient norm              1.679343728975 Eh/a0 ::
         :: HOMO-LUMO gap              3.408890897552 eV    ::
         ::.................................................::
         :: SCC energy               -83.401747183878 Eh    ::
         :: -> isotropic ES            0.148249444689 Eh    ::
         :: -> anisotropic ES          0.011148363645 Eh    ::
         :: -> anisotropic XC          0.026816676442 Eh    ::
         :: -> dispersion             -0.061984127716 Eh    ::
         :: repulsion energy           1.082317502015 Eh    ::
         :: add. restraining           0.169460553919 Eh    ::
         :: total charge              -0.000000000000 e     ::
         :::::::::::::::::::::::::::::::::::::::::::::::::::::

      ----------------------------------------------------------- 
     |                   =====================                   |
     |                        A N C O P T                        |
     |                   =====================                   |
     |               Approximate Normal Coordinate               |
     |                Rational Function Optimizer                |
      ----------------------------------------------------------- 

          ...................................................
          :                      SETUP                      :
          :.................................................:
          :   optimization level            normal          :
          :   max. optcycles                   200          :
          :   ANC micro-cycles                  20          :
          :   degrees of freedom               174          :
          :.................................................:
          :   RF solver                   davidson          :
          :   write xtbopt.log                true          :
          :   linear?                        false          :
          :   energy convergence         0.5000000E-05 Eh   :
          :   grad. convergence          0.1000000E-02 Eh/α :
          :   maximium RF displ.         1.0000000          :
          :   Hlow (freq-cutoff)         0.1000000E-01      :
          :   Hmax (freq-cutoff)         5.0000000          :
          :   S6 in model hess.         20.0000000          :
          ...................................................

generating ANC from model Hessian ...
Using Lindh-Hessian (1995)
 Shifting diagonal of input Hessian by   0.20522293709614470     
 Lowest  eigenvalues of input Hessian
    0.010000    0.164086    0.000000    0.000000    0.000000    0.000000
    0.000000    0.000000    0.205352    0.205369    0.205514    0.206908
    0.207119    0.208145    0.208538    0.208650    0.209960    0.210338
 Highest eigenvalues
    1.924494    2.113607    2.116652    2.169355    8.954451    9.314674


........................................................................
.............................. CYCLE    1 ..............................
........................................................................
   1    -83.4017472 -0.834017E+02  0.167E-04    3.41       0.0  T
   2    -83.4017472 -0.623231E-09  0.121E-04    3.41     106.9  T
   3    -83.4017472 -0.500592E-09  0.604E-05    3.41     213.9  T
     SCC iter.                  ...        0 min,  0.018 sec
     gradient                   ...        0 min,  0.020 sec
 * total energy  :   -82.1493031 Eh     change       -0.1336943E-08 Eh
   gradient norm :     1.6793446 Eh/α   predicted     0.0000000E+00 (-100.00%)
   displ. norm   :     0.3112905 α      lambda       -0.5159709E+00
   maximum displ.:     0.2310928 α      in ANC's #174, #173, #127, ...

........................................................................
.............................. CYCLE    2 ..............................
........................................................................
   1    -83.4064430 -0.834064E+02  0.277E-01    3.50       0.0  T
   2    -83.4065396 -0.966012E-04  0.202E-01    3.51       1.0  T
   3    -83.4068041 -0.264469E-03  0.130E-01    3.51       1.0  T
   4    -83.4072424 -0.438362E-03  0.240E-02    3.51       1.0  T
   5    -83.4072712 -0.288019E-04  0.675E-03    3.51       1.9  T
   6    -83.4072730 -0.175193E-05  0.308E-03    3.51       4.2  T
   7    -83.4072732 -0.200736E-06  0.981E-04    3.51      13.2  T
   8    -83.4072732 -0.487778E-08  0.320E-04    3.51      40.3  T
     SCC iter.                  ...        0 min,  0.045 sec
     gradient                   ...        0 min,  0.017 sec
 * total energy  :   -82.2692944 Eh     change       -0.1199913E+00 Eh
   gradient norm :     0.9220912 Eh/α   predicted    -0.2831139E+00 ( 135.95%)
   displ. norm   :     0.1098823 α      lambda       -0.9894191E-01
   maximum displ.:     0.0787094 α      in ANC's #174, #173, #36, ...

........................................................................
.............................. CYCLE    3 ..............................
........................................................................
   1    -83.4048066 -0.834048E+02  0.104E-01    3.47       0.0  T
   2    -83.4048287 -0.220986E-04  0.749E-02    3.47       1.0  T
   3    -83.4048631 -0.344759E-04  0.507E-02    3.47       1.0  T
   4    -83.4049321 -0.689672E-04  0.951E-03    3.47       1.4  T
   5    -83.4049364 -0.426358E-05  0.283E-03    3.47       4.6  T
   6    -83.4049367 -0.312434E-06  0.135E-03    3.47       9.5  T
   7    -83.4049367 -0.388548E-07  0.415E-04    3.47      31.1  T
   8    -83.4049367 -0.157154E-08  0.135E-04    3.47      96.0  T
     SCC iter.                  ...        0 min,  0.044 sec
     gradient                   ...        0 min,  0.017 sec
 * total energy  :   -82.3191928 Eh     change       -0.4989836E-01 Eh
   gradient norm :     0.0344897 Eh/α   predicted    -0.5006832E-01 (   0.34%)
   displ. norm   :     0.0379111 α      lambda       -0.7969708E-03
   maximum displ.:     0.0162762 α      in ANC's #36, #28, #37, ...

........................................................................
.............................. CYCLE    4 ..............................
........................................................................
   1    -83.4037191 -0.834037E+02  0.246E-02    3.46       0.0  T
   2    -83.4037209 -0.178382E-05  0.154E-02    3.46       1.0  T
   3    -83.4037184  0.250986E-05  0.115E-02    3.46       1.1  T
   4    -83.4037228 -0.441610E-05  0.243E-03    3.46       5.3  T
   5    -83.4037231 -0.312755E-06  0.638E-04    3.46      20.2  T
   6    -83.4037231 -0.167676E-07  0.294E-04    3.46      43.9  T
     SCC iter.                  ...        0 min,  0.034 sec
     gradient                   ...        0 min,  0.017 sec
 * total energy  :   -82.3197704 Eh     change       -0.5776851E-03 Eh
   gradient norm :     0.0219696 Eh/α   predicted    -0.3990999E-03 ( -30.91%)
   displ. norm   :     0.1052204 α      lambda       -0.1074438E-02
   maximum displ.:     0.0517745 α      in ANC's #1, #36, #28, ...

........................................................................
.............................. CYCLE    5 ..............................
........................................................................
   1    -83.4016179 -0.834016E+02  0.630E-02    3.45       0.0  T
   2    -83.4016230 -0.509294E-05  0.379E-02    3.45       1.0  T
   3    -83.4016009  0.220979E-04  0.217E-02    3.45       1.0  T
   4    -83.4016255 -0.245255E-04  0.406E-03    3.45       3.2  T
   5    -83.4016264 -0.916004E-06  0.105E-03    3.45      12.3  T
   6    -83.4016264 -0.298127E-07  0.561E-04    3.45      23.0  T
   7    -83.4016264 -0.688050E-08  0.184E-04    3.45      70.0  T
     SCC iter.                  ...        0 min,  0.039 sec
     gradient                   ...        0 min,  0.017 sec
 * total energy  :   -82.3202703 Eh     change       -0.4998182E-03 Eh
   gradient norm :     0.0141781 Eh/α   predicted    -0.5431739E-03 (   8.67%)
   displ. norm   :     0.3232696 α      lambda       -0.1722126E-02
   maximum displ.:     0.2810093 α      in ANC's #1, #36, #28, ...

........................................................................
.............................. CYCLE    6 ..............................
........................................................................
   1    -83.3944233 -0.833944E+02  0.192E-01    3.42       0.0  T
   2    -83.3944354 -0.120932E-04  0.115E-01    3.42       1.0  T
   3    -83.3943849  0.505174E-04  0.332E-02    3.42       1.0  T
   4    -83.3944416 -0.567375E-04  0.466E-03    3.42       2.8  T
   5    -83.3944423 -0.732774E-06  0.195E-03    3.42       6.6  T
   6    -83.3944423  0.289510E-07  0.124E-03    3.42      10.4  T
   7    -83.3944424 -0.623735E-07  0.372E-04    3.42      34.7  T
   8    -83.3944424 -0.504799E-08  0.114E-04    3.42     112.8  T
     SCC iter.                  ...        0 min,  0.044 sec
     gradient                   ...        0 min,  0.016 sec
 * total energy  :   -82.3170726 Eh     change        0.3197707E-02 Eh
   gradient norm :     0.0842473 Eh/α   predicted    -0.9510655E-03 (-129.74%)
   displ. norm   :     0.2319047 α      lambda       -0.7352147E-02
   maximum displ.:     0.2150995 α      in ANC's #1, #36, #28, ...

........................................................................
.............................. CYCLE    7 ..............................
........................................................................
   1    -83.4026535 -0.834027E+02  0.140E-01    3.45       0.0  T
   2    -83.4026603 -0.680801E-05  0.844E-02    3.45       1.0  T
   3    -83.4026264  0.338605E-04  0.259E-02    3.45       1.0  T
   4    -83.4026638 -0.374466E-04  0.415E-03    3.45       3.1  T
   5    -83.4026645 -0.686664E-06  0.192E-03    3.45       6.7  T
   6    -83.4026646 -0.664954E-07  0.112E-03    3.45      11.5  T
   7    -83.4026646 -0.338593E-07  0.254E-04    3.45      50.8  T
   8    -83.4026646 -0.122446E-08  0.934E-05    3.45     138.3  T
     SCC iter.                  ...        0 min,  0.044 sec
     gradient                   ...        0 min,  0.017 sec
 * total energy  :   -82.3206824 Eh     change       -0.3609846E-02 Eh
   gradient norm :     0.0213496 Eh/α   predicted    -0.3874149E-02 (   7.32%)
   displ. norm   :     0.0314886 α      lambda       -0.2400745E-03
   maximum displ.:     0.0160892 α      in ANC's #1, #28, #36, ...

........................................................................
.............................. CYCLE    8 ..............................
........................................................................
   1    -83.4036443 -0.834036E+02  0.164E-02    3.46       0.0  T
   2    -83.4036447 -0.349032E-06  0.100E-02    3.46       1.3  T
   3    -83.4036437  0.973870E-06  0.491E-03    3.46       2.6  T
   4    -83.4036448 -0.109763E-05  0.106E-03    3.46      12.2  T
   5    -83.4036449 -0.640512E-07  0.274E-04    3.46      47.1  T
   6    -83.4036449 -0.193587E-08  0.154E-04    3.46      83.9  T
     SCC iter.                  ...        0 min,  0.034 sec
     gradient                   ...        0 min,  0.017 sec
 * total energy  :   -82.3208793 Eh     change       -0.1969116E-03 Eh
   gradient norm :     0.0083875 Eh/α   predicted    -0.1204730E-03 ( -38.82%)
   displ. norm   :     0.1276269 α      lambda       -0.5752725E-03
   maximum displ.:     0.0756238 α      in ANC's #28, #36, #37, ...

........................................................................
.............................. CYCLE    9 ..............................
........................................................................
   1    -83.4057884 -0.834058E+02  0.613E-02    3.48       0.0  T
   2    -83.4057904 -0.203871E-05  0.364E-02    3.47       1.0  T
   3    -83.4057879  0.248575E-05  0.767E-03    3.47       1.7  T
   4    -83.4057909 -0.293359E-05  0.170E-03    3.47       7.6  T
   5    -83.4057910 -0.133781E-06  0.605E-04    3.47      21.3  T
   6    -83.4057910 -0.240756E-08  0.355E-04    3.47      36.3  T
     SCC iter.                  ...        0 min,  0.035 sec
     gradient                   ...        0 min,  0.018 sec
 * total energy  :   -82.3212724 Eh     change       -0.3930543E-03 Eh
   gradient norm :     0.0126408 Eh/α   predicted    -0.2923960E-03 ( -25.61%)
   displ. norm   :     0.1173136 α      lambda       -0.2942331E-03
   maximum displ.:     0.0724743 α      in ANC's #28, #36, #37, ...

........................................................................
.............................. CYCLE   10 ..............................
........................................................................
   1    -83.4068962 -0.834069E+02  0.557E-02    3.49       0.0  T
   2    -83.4068973 -0.105738E-05  0.329E-02    3.48       1.0  T
   3    -83.4068909  0.642354E-05  0.107E-02    3.48       1.2  T
   4    -83.4068977 -0.686776E-05  0.209E-03    3.48       6.2  T
   5    -83.4068980 -0.229997E-06  0.503E-04    3.48      25.7  T
   6    -83.4068980 -0.785391E-09  0.217E-04    3.48      59.6  T
     SCC iter.                  ...        0 min,  0.033 sec
     gradient                   ...        0 min,  0.017 sec
 * total energy  :   -82.3214729 Eh     change       -0.2005202E-03 Eh
   gradient norm :     0.0097120 Eh/α   predicted    -0.1491528E-03 ( -25.62%)
   displ. norm   :     0.0776985 α      lambda       -0.1383177E-03
   maximum displ.:     0.0500771 α      in ANC's #28, #36, #17, ...

........................................................................
.............................. CYCLE   11 ..............................
........................................................................
   1    -83.4075176 -0.834075E+02  0.361E-02    3.49       0.0  T
   2    -83.4075179 -0.262844E-06  0.216E-02    3.49       1.0  T
   3    -83.4075110  0.689228E-05  0.111E-02    3.49       1.2  T
   4    -83.4075185 -0.748529E-05  0.915E-04    3.49      14.1  T
   5    -83.4075185 -0.325780E-07  0.359E-04    3.49      35.9  T
   6    -83.4075185 -0.627537E-09  0.209E-04    3.49      61.7  T
     SCC iter.                  ...        0 min,  0.033 sec
     gradient                   ...        0 min,  0.017 sec
 * total energy  :   -82.3215697 Eh     change       -0.9677072E-04 Eh
   gradient norm :     0.0050941 Eh/α   predicted    -0.6958925E-04 ( -28.09%)
   displ. norm   :     0.0563862 α      lambda       -0.9569953E-04
   maximum displ.:     0.0372529 α      in ANC's #28, #17, #36, ...

........................................................................
.............................. CYCLE   12 ..............................
........................................................................
   1    -83.4081734 -0.834082E+02  0.250E-02    3.49       0.0  T
   2    -83.4081735 -0.472589E-07  0.153E-02    3.49       1.0  T
   3    -83.4081678  0.563678E-05  0.101E-02    3.49       1.3  T
   4    -83.4081741 -0.624936E-05  0.583E-04    3.49      22.1  T
   5    -83.4081741 -0.117217E-07  0.287E-04    3.49      44.9  T
   6    -83.4081741 -0.129501E-08  0.161E-04    3.49      80.1  T
     SCC iter.                  ...        0 min,  0.033 sec
     gradient                   ...        0 min,  0.017 sec
 * total energy  :   -82.3216395 Eh     change       -0.6980875E-04 Eh
   gradient norm :     0.0037422 Eh/α   predicted    -0.4801134E-04 ( -31.22%)
   displ. norm   :     0.0503116 α      lambda       -0.8328607E-04
   maximum displ.:     0.0312355 α      in ANC's #28, #17, #14, ...

........................................................................
.............................. CYCLE   13 ..............................
........................................................................
   1    -83.4089039 -0.834089E+02  0.211E-02    3.49       0.0  T
   2    -83.4089039 -0.183525E-07  0.132E-02    3.49       1.0  T
   3    -83.4088994  0.457927E-05  0.915E-03    3.49       1.4  T
   4    -83.4089045 -0.515461E-05  0.571E-04    3.49      22.6  T
   5    -83.4089045 -0.136641E-07  0.234E-04    3.49      55.2  T
   6    -83.4089045 -0.430148E-09  0.124E-04    3.49     103.8  T
     SCC iter.                  ...        0 min,  0.035 sec
     gradient                   ...        0 min,  0.016 sec
 * total energy  :   -82.3216970 Eh     change       -0.5755300E-04 Eh
   gradient norm :     0.0039328 Eh/α   predicted    -0.4177497E-04 ( -27.41%)
   displ. norm   :     0.0339356 α      lambda       -0.4663418E-04
   maximum displ.:     0.0166790 α      in ANC's #28, #17, #36, ...

........................................................................
.............................. CYCLE   14 ..............................
........................................................................
   1    -83.4092857 -0.834093E+02  0.141E-02    3.49       0.0  T
   2    -83.4092858 -0.505730E-07  0.860E-03    3.48       1.5  T
   3    -83.4092844  0.141579E-05  0.507E-03    3.48       2.5  T
   4    -83.4092859 -0.156114E-05  0.562E-04    3.48      23.0  T
   5    -83.4092859 -0.159132E-07  0.197E-04    3.48      65.6  T
   6    -83.4092859 -0.586382E-09  0.960E-05    3.48     134.4  T
     SCC iter.                  ...        0 min,  0.035 sec
     gradient                   ...        0 min,  0.017 sec
 * total energy  :   -82.3217294 Eh     change       -0.3233718E-04 Eh
   gradient norm :     0.0031072 Eh/α   predicted    -0.2336696E-04 ( -27.74%)
   displ. norm   :     0.0246008 α      lambda       -0.2807669E-04
   maximum displ.:     0.0115586 α      in ANC's #36, #37, #17, ...

........................................................................
.............................. CYCLE   15 ..............................
........................................................................
   1    -83.4092924 -0.834093E+02  0.103E-02    3.48       0.0  T
   2    -83.4092924 -0.655812E-07  0.611E-03    3.48       2.1  T
   3    -83.4092922  0.270972E-06  0.252E-03    3.48       5.1  T
   4    -83.4092925 -0.307358E-06  0.325E-04    3.48      39.7  T
   5    -83.4092925 -0.449464E-08  0.154E-04    3.48      83.8  T
     SCC iter.                  ...        0 min,  0.030 sec
     gradient                   ...        0 min,  0.016 sec
 * total energy  :   -82.3217493 Eh     change       -0.1993091E-04 Eh
   gradient norm :     0.0020450 Eh/α   predicted    -0.1405006E-04 ( -29.51%)
   displ. norm   :     0.0224530 α      lambda       -0.2137870E-04
   maximum displ.:     0.0103568 α      in ANC's #36, #17, #37, ...

........................................................................
.............................. CYCLE   16 ..............................
........................................................................
   1    -83.4090281 -0.834090E+02  0.867E-03    3.48       0.0  T
   2    -83.4090282 -0.624097E-07  0.520E-03    3.48       2.5  T
   3    -83.4090278  0.334663E-06  0.281E-03    3.48       4.6  T
   4    -83.4090282 -0.386422E-06  0.355E-04    3.48      36.3  T
   5    -83.4090282 -0.466565E-08  0.156E-04    3.48      82.7  T
     SCC iter.                  ...        0 min,  0.029 sec
     gradient                   ...        0 min,  0.017 sec
 * total energy  :   -82.3217649 Eh     change       -0.1557563E-04 Eh
   gradient norm :     0.0020044 Eh/α   predicted    -0.1069893E-04 ( -31.31%)
   displ. norm   :     0.0246711 α      lambda       -0.2017082E-04
   maximum displ.:     0.0096229 α      in ANC's #36, #17, #14, ...

........................................................................
.............................. CYCLE   17 ..............................
........................................................................
   1    -83.4086066 -0.834086E+02  0.886E-03    3.48       0.0  T
   2    -83.4086067 -0.641756E-07  0.537E-03    3.48       2.4  T
   3    -83.4086064  0.320779E-06  0.263E-03    3.48       4.9  T
   4    -83.4086067 -0.365150E-06  0.356E-04    3.48      36.3  T
   5    -83.4086067 -0.522240E-08  0.147E-04    3.48      87.7  T
     SCC iter.                  ...        0 min,  0.029 sec
     gradient                   ...        0 min,  0.017 sec
 * total energy  :   -82.3217793 Eh     change       -0.1441636E-04 Eh
   gradient norm :     0.0022132 Eh/α   predicted    -0.1009490E-04 ( -29.98%)
   displ. norm   :     0.0241133 α      lambda       -0.1566993E-04
   maximum displ.:     0.0095001 α      in ANC's #17, #14, #12, ...

........................................................................
.............................. CYCLE   18 ..............................
........................................................................
   1    -83.4082611 -0.834083E+02  0.863E-03    3.48       0.0  T
   2    -83.4082611 -0.378785E-07  0.517E-03    3.48       2.5  T
   3    -83.4082610  0.130035E-06  0.162E-03    3.48       8.0  T
   4    -83.4082611 -0.145017E-06  0.279E-04    3.48      46.2  T
   5    -83.4082611 -0.322325E-08  0.114E-04    3.48     113.5  T
     SCC iter.                  ...        0 min,  0.029 sec
     gradient                   ...        0 min,  0.017 sec
 * total energy  :   -82.3217902 Eh     change       -0.1092179E-04 Eh
   gradient norm :     0.0018032 Eh/α   predicted    -0.7842425E-05 ( -28.19%)
   displ. norm   :     0.0269518 α      lambda       -0.9559692E-05
   maximum displ.:     0.0106342 α      in ANC's #17, #14, #12, ...

........................................................................
.............................. CYCLE   19 ..............................
........................................................................
   1    -83.4081598 -0.834082E+02  0.102E-02    3.48       0.0  T
   2    -83.4081598 -0.375535E-07  0.611E-03    3.48       2.1  T
   3    -83.4081595  0.346248E-06  0.256E-03    3.48       5.0  T
   4    -83.4081598 -0.375293E-06  0.379E-04    3.48      34.1  T
   5    -83.4081598 -0.630156E-08  0.128E-04    3.48     100.8  T
     SCC iter.                  ...        0 min,  0.032 sec
     gradient                   ...        0 min,  0.017 sec
 * total energy  :   -82.3217979 Eh     change       -0.7685414E-05 Eh
   gradient norm :     0.0011373 Eh/α   predicted    -0.4784306E-05 ( -37.75%)
   displ. norm   :     0.0064051 α      lambda       -0.3432515E-05
   maximum displ.:     0.0019654 α      in ANC's #68, #12, #28, ...

........................................................................
.............................. CYCLE   20 ..............................
........................................................................
   1    -83.4084906 -0.834085E+02  0.331E-03    3.48       0.0  T
   2    -83.4084906 -0.135739E-07  0.206E-03    3.48       6.3  T
   3    -83.4084906  0.640416E-07  0.132E-03    3.48       9.8  T
   4    -83.4084906 -0.814052E-07  0.195E-04    3.48      66.1  T
   5    -83.4084906 -0.166877E-08  0.756E-05    3.48     170.8  T
     SCC iter.                  ...        0 min,  0.030 sec
     gradient                   ...        0 min,  0.017 sec
 * total energy  :   -82.3218019 Eh     change       -0.4020200E-05 Eh
   gradient norm :     0.0008209 Eh/α   predicted    -0.1721249E-05 ( -57.18%)
   displ. norm   :     0.0163544 α      lambda       -0.4836240E-05
   maximum displ.:     0.0062051 α      in ANC's #12, #14, #11, ...

   *** GEOMETRY OPTIMIZATION CONVERGED AFTER 20 ITERATIONS ***

------------------------------------------------------------------------
 total energy gain   :        -0.1724988 Eh     -108.2447 kcal/mol
 total RMSD          :         0.0927608 a0        0.0491 Å
 total power (kW/mol):       -22.6447827 (step) -393.5776 (real)
------------------------------------------------------------------------

 ANCopt (total)                0 d,  0 h,  0 min,  1.151 sec
 optimizer setup                ...        0 min,  0.000 sec (  0.007%)
 model hessian                  ...        0 min,  0.031 sec (  2.673%)
 ANC generation                 ...        0 min,  0.005 sec (  0.442%)
 coordinate transformation      ...        0 min,  0.001 sec (  0.061%)
 single point calculation       ...        0 min,  1.106 sec ( 96.106%)
 optimization log               ...        0 min,  0.004 sec (  0.378%)
 hessian update                 ...        0 min,  0.001 sec (  0.048%)
 rational function              ...        0 min,  0.002 sec (  0.205%)

================
 final structure:
================
60
 xtb: 6.5.0 (homebrew)
C            3.53905793607438      -37.74050156532415       15.85130615695056
C            3.75133482199433      -38.09844209477320       17.31985022104711
O            3.30609497899817      -37.01827589063733       18.14315539736029
C            2.88639962799690      -39.31489621910572       17.67275822437282
C            5.25108808292138      -38.27312036137018       17.75275433750654
C            5.72976156723036      -39.71853607199566       17.85834525016812
C            6.22002567716552      -37.48152328884935       16.86600529600114
O            5.28396307271696      -37.66283897049776       19.04543321241697
B            4.18242204763726      -36.87056610627722       19.18294465933118
C            3.93216108584623      -35.89254380313399       20.38688545214875
C            4.90476430051363      -35.99144450849390       21.48950519703790
C            4.90402461610485      -35.31325624100169       22.63270917121660
H            5.70324075142002      -35.49826369328570       23.33917528266934
C            3.87876259199413      -34.30316193164830       23.04270016128782
H            4.11926832741549      -33.91500696031516       24.03387681993648
C            2.49718934163705      -34.92108891148854       23.10902671170625
B            1.75208360906117      -34.91501795376157       24.47649531798100
O            2.26136617536635      -34.37415754919770       25.62607911061131
C            1.39594770373996      -34.70168287724425       26.71148440323202
C            1.25636806149783      -33.49550124530590       27.63751267007470
C            2.06173973665654      -35.85047425973247       27.48024972827903
C            0.07013274853176      -35.14002127675050       25.98989380855950
C           -0.94563108864280      -33.99756050239657       25.85977287460780
C           -0.62526905002739      -36.35314249171781       26.60415920285448
O            0.51061406619717      -35.45854527501250       24.67084096597317
C            1.92228146116333      -35.48716190643454       22.03827261617704
C            2.45153150568743      -35.60229676822441       20.68523363771650
H            1.77707159168927      -36.09228767264894       19.99379336622888
C            3.33112960173231      -34.55898991267349       20.04485637853459
C            3.72514958641490      -33.32872220208750       20.73707936791940
C            3.96249593721613      -33.19841194163430       22.03870820141312
H            4.25356464494294      -32.22575944698828       22.41452392692301
H            2.47182255188904      -37.66471764972803       15.65808530582272
H            3.95798906811802      -38.51311557441246       15.21240461766799
H            3.99318108114869      -36.78498063312460       15.60991195398799
H            1.84252532783718      -39.05716155502026       17.50886606029999
H            3.00881566976555      -39.57147464312605       18.72215141546429
H            3.14042856866315      -40.16947188675120       17.05288254866995
H            5.62093539537288      -40.22175019658264       16.90134056374522
H            5.17633278276351      -40.26058232316099       18.61818615460264
H            6.77976818771302      -39.72197713957155       18.13992409755150
H            6.28591164896862      -37.91321436903746       15.87189529902913
H            7.20445772780921      -37.50095589145196       17.32767799094835
H            5.90278965823692      -36.44384482859489       16.79740190982631
H            5.70291713506286      -36.69690138052005       21.29753700868705
H            2.22121936918867      -33.28709876964155       28.09324583653288
H            0.53543634254288      -33.70708098606878       28.42273775649697
H            0.94575538641184      -32.61245997308773       27.08859424159541
H            3.04836418497328      -35.52493630884031       27.80205481453194
H            2.18832234314130      -36.71270147613932       26.83029917490206
H            1.47921578503424      -36.12920264289903       28.35327863224348
H           -1.35514549180405      -33.72454500935165       26.82777659301300
H           -1.75521357700749      -34.32890643178764       25.21349062816293
H           -0.48103034133988      -33.13054117798373       25.39709684518674
H           -0.88345291975741      -36.15248641808070       27.64052581005954
H            0.00361807394816      -37.23572978127665       26.55063344728781
H           -1.53686981249098      -36.55526566499318       26.04736256227461
H            0.93838213750370      -35.91820966706756       22.17643241003239
H            3.14205216244358      -34.41171949532479       18.98701003376140
H            3.83508643496986      -32.46262822636690       20.09563915937237

 Bond Distances (Angstroems)
 ---------------------------
C1-C2=1.5264         C1-H33=1.0872        C1-H34=1.0866        C1-H35=1.0851        C2-C1=1.5264         C2-O3=1.4293         
C2-C4=1.5338         C2-C5=1.5707         O3-C2=1.4293         O3-B9=1.3678         C4-C2=1.5338         C4-H36=1.0876        
C4-H37=1.0872        C4-H38=1.0859        C5-C2=1.5707         C5-C6=1.5263         C5-C7=1.5336         C5-O8=1.4299         
C6-C5=1.5263         C6-H39=1.0867        C6-H40=1.0851        C6-H41=1.0871        C7-C5=1.5336         C7-H42=1.0858        
C7-H43=1.0875        C7-H44=1.0873        O8-C5=1.4299         O8-B9=1.3638         B9-O3=1.3678         B9-O8=1.3638         
B9-C10=1.5712        C10-B9=1.5712        C10-C11=1.4736       C10-C27=1.5380       C10-C29=1.5022       C11-C10=1.4736       
C11-C12=1.3292       C11-H45=1.0824       C12-C11=1.3292       C12-H13=1.0826       C12-C14=1.4965       H13-C12=1.0826       
C14-C12=1.4965       C14-H15=1.0913       C14-C16=1.5149       C14-C31=1.4952       H15-C14=1.0913       C16-C14=1.5149       
C16-B17=1.5573       C16-C26=1.3407       B17-C16=1.5573       B17-O18=1.3687       B17-O25=1.3691       O18-B17=1.3687       
O18-C19=1.4263       C19-O18=1.4263       C19-C20=1.5271       C19-C21=1.5343       C19-C22=1.5718       C20-C19=1.5271       
C20-H46=1.0872       C20-H47=1.0868       C20-H48=1.0852       C21-C19=1.5343       C21-H49=1.0876       C21-H50=1.0871       
C21-H51=1.0859       C22-C19=1.5718       C22-C23=1.5343       C22-C24=1.5273       C22-O25=1.4267       C23-C22=1.5343       
C23-H52=1.0859       C23-H53=1.0876       C23-H54=1.0870       C24-C22=1.5273       C24-H55=1.0867       C24-H56=1.0850       
C24-H57=1.0871       O25-B17=1.3691       O25-C22=1.4267       C26-C16=1.3407       C26-C27=1.4574       C26-H58=1.0830       
C27-C10=1.5380       C27-C26=1.4574       C27-H28=1.0831       C27-C29=1.5074       H28-C27=1.0831       C29-C10=1.5022       
C29-C27=1.5074       C29-C30=1.4656       C29-H59=1.0847       C30-C29=1.4656       C30-C31=1.3295       C30-H60=1.0834       
C31-C14=1.4952       C31-C30=1.3295       C31-H32=1.0826       H32-C31=1.0826       H33-C1=1.0872        H34-C1=1.0866        
H35-C1=1.0851        H36-C4=1.0876        H37-C4=1.0872        H38-C4=1.0859        H39-C6=1.0867        H40-C6=1.0851        
H41-C6=1.0871        H42-C7=1.0858        H43-C7=1.0875        H44-C7=1.0873        H45-C11=1.0824       H46-C20=1.0872       
H47-C20=1.0868       H48-C20=1.0852       H49-C21=1.0876       H50-C21=1.0871       H51-C21=1.0859       H52-C23=1.0859       
H53-C23=1.0876       H54-C23=1.0870       H55-C24=1.0867       H56-C24=1.0850       H57-C24=1.0871       H58-C26=1.0830       
H59-C29=1.0847       H60-C30=1.0834       
 C  H  Rav=1.0860 sigma=0.0019  Rmin=1.0824  Rmax=1.0913    32
 C  B  Rav=1.5642 sigma=0.0069  Rmin=1.5573  Rmax=1.5712     2
 C  C  Rav=1.4925 sigma=0.0692  Rmin=1.3292  Rmax=1.5718    22
 O  B  Rav=1.3674 sigma=0.0021  Rmin=1.3638  Rmax=1.3691     4
 O  C  Rav=1.4280 sigma=0.0016  Rmin=1.4263  Rmax=1.4299     4

 selected bond angles (degree)
 --------------------
H33-C1-C2=108.90               H34-C1-C2=110.20               H34-C1-H33=108.88              H35-C1-C2=111.24               
H35-C1-H33=108.05              H35-C1-H34=109.51              O3-C2-C1=109.49                C4-C2-C1=109.20                
C4-C2-O3=106.93                C5-C2-C1=115.09                C5-C2-O3=102.87                C5-C2-C4=112.76                
B9-O3-C2=108.66                H36-C4-C2=108.58               H37-C4-C2=110.23               H37-C4-H36=108.02              
H38-C4-C2=111.16               H38-C4-H36=108.97              H38-C4-H37=109.81              C6-C5-C2=115.08                
C7-C5-C2=112.74                C7-C5-C6=109.31                O8-C5-C2=102.92                O8-C5-C6=109.54                
O8-C5-C7=106.73                H39-C6-C5=110.26               H40-C6-C5=111.20               H40-C6-H39=109.53              
H41-C6-C5=108.90               H41-C6-H39=108.87              H41-C6-H40=108.04              H42-C7-C5=111.25               
H43-C7-C5=108.50               H43-C7-H42=109.07              H44-C7-C5=110.17               H44-C7-H42=109.84              
H44-C7-H43=107.94              B9-O8-C5=108.69                O8-B9-O3=112.22                C10-B9-O3=123.21               
C10-B9-O8=124.58               C11-C10-B9=115.24              C27-C10-B9=114.80              C27-C10-C11=120.19             
C29-C10-B9=116.22              C29-C10-C11=119.61             C29-C10-C27= 59.43             

 selected dihedral angles (degree)
 ---------------------------------
O3-C2-C1-H33=294.10           O3-C2-C1-H34=174.73           O3-C2-C1-H35= 53.08           C4-C2-C1-H33= 50.86           
C4-C2-C1-H34=291.50           C4-C2-C1-H35=169.84           C5-C2-C1-H33=178.85           C5-C2-C1-H34= 59.48           
C5-C2-C1-H35=297.82           B9-O3-C2-C1=219.58            B9-O3-C2-C4=101.38            B9-O3-C2-C5=342.41            
H36-C4-C2-C1=299.36           H36-C4-C2-O3= 57.74           H36-C4-C2-C5=170.08           H37-C4-C2-C1=181.21           
H37-C4-C2-O3=299.59           H37-C4-C2-C5= 51.93           H38-C4-C2-C1= 59.21           H38-C4-C2-O3=177.59           
H38-C4-C2-C5=289.93           C6-C5-C2-C1=259.28            C6-C5-C2-O3=140.28            C6-C5-C2-C4= 25.46            
C7-C5-C2-C1= 25.58            C7-C5-C2-O3=266.58            C7-C5-C2-C4=151.76            O8-C5-C2-C1=140.19            
O8-C5-C2-O3= 21.19            O8-C5-C2-C4=266.37            H39-C6-C5-C2= 59.32           H39-C6-C5-C7=291.29           
H39-C6-C5-O8=174.67           H40-C6-C5-C2=297.63           H40-C6-C5-C7=169.60           H40-C6-C5-O8= 52.98           
H41-C6-C5-C2=178.70           H41-C6-C5-C7= 50.67           H41-C6-C5-O8=294.05           H42-C7-C5-C2=289.74           
H42-C7-C5-C6= 59.07           H42-C7-C5-O8=177.45           H43-C7-C5-C2=169.76           H43-C7-C5-C6=299.09           
H43-C7-C5-O8= 57.47           H44-C7-C5-C2= 51.80           H44-C7-C5-C6=181.13           H44-C7-C5-O8=299.51           
B9-O8-C5-C2=342.33            B9-O8-C5-C6=219.45            B9-O8-C5-C7=101.22            O8-B9-O3-C2=  7.47            
C10-B9-O3-C2=187.34           O3-B9-O8-C5=  7.59            C10-B9-O8-C5=187.72           C11-C10-B9-O3=172.82          
C11-C10-B9-O8=352.67          C27-C10-B9-O3= 26.68          C27-C10-B9-O8=206.54          C29-C10-B9-O3=320.07          
C29-C10-B9-O8=139.92          
           -------------------------------------------------
          |                Final Singlepoint                |
           -------------------------------------------------

          ...................................................
          :                      SETUP                      :
          :.................................................:
          :  # basis functions                 144          :
          :  # atomic orbitals                 144          :
          :  # shells                           88          :
          :  # electrons                       150          :
          :  max. iterations                   250          :
          :  Hamiltonian                  GFN2-xTB          :
          :  restarted?                      false          :
          :  GBSA solvation                  false          :
          :  PC potential                    false          :
          :  electronic temp.          300.0000000     K    :
          :  accuracy                    1.0000000          :
          :  -> integral cutoff          0.2500000E+02      :
          :  -> integral neglect         0.1000000E-07      :
          :  -> SCF convergence          0.1000000E-05 Eh   :
          :  -> wf. convergence          0.1000000E-03 e    :
          :  Broyden damping             0.4000000          :
          ...................................................

 iter      E             dE          RMSdq      gap      omega  full diag
   1    -83.4084906 -0.834085E+02  0.396E-05    3.48       0.0  T
   2    -83.4084906  0.527223E-11  0.311E-05    3.48     415.4  T
   3    -83.4084906 -0.462421E-10  0.152E-05    3.48     851.8  T

   *** convergence criteria satisfied after 3 iterations ***

         #    Occupation            Energy/Eh            Energy/eV
      -------------------------------------------------------------
         1        2.0000           -0.6940475             -18.8860
       ...           ...                  ...                  ...
        69        2.0000           -0.4032083             -10.9719
        70        2.0000           -0.4002788             -10.8921
        71        2.0000           -0.3980424             -10.8313
        72        2.0000           -0.3946528             -10.7390
        73        2.0000           -0.3866192             -10.5204
        74        2.0000           -0.3531104              -9.6086
        75        2.0000           -0.3498165              -9.5190 (HOMO)
        76                         -0.2220042              -6.0410 (LUMO)
        77                         -0.1909137              -5.1950
        78                         -0.1841031              -5.0097
        79                         -0.1482043              -4.0328
        80                         -0.0935337              -2.5452
       ...                                ...                  ...
       144                          0.6738135              18.3354
      -------------------------------------------------------------
                  HL-Gap            0.1278123 Eh            3.4780 eV
             Fermi-level           -0.2859104 Eh           -7.7800 eV

 SCC (total)                   0 d,  0 h,  0 min,  0.039 sec
 SCC setup                      ...        0 min,  0.000 sec (  0.436%)
 Dispersion                     ...        0 min,  0.000 sec (  0.900%)
 classical contributions        ...        0 min,  0.000 sec (  0.339%)
 integral evaluation            ...        0 min,  0.003 sec (  8.340%)
 iterations                     ...        0 min,  0.019 sec ( 47.225%)
 molecular gradient             ...        0 min,  0.017 sec ( 41.875%)
 printout                       ...        0 min,  0.000 sec (  0.867%)

         :::::::::::::::::::::::::::::::::::::::::::::::::::::
         ::                     SUMMARY                     ::
         :::::::::::::::::::::::::::::::::::::::::::::::::::::
         :: total energy             -82.321801913066 Eh    ::
         :: gradient norm              0.000821550992 Eh/a0 ::
         :: HOMO-LUMO gap              3.477950221952 eV    ::
         ::.................................................::
         :: SCC energy               -83.408490639040 Eh    ::
         :: -> isotropic ES            0.148189261747 Eh    ::
         :: -> anisotropic ES          0.011065264685 Eh    ::
         :: -> anisotropic XC          0.026874710968 Eh    ::
         :: -> dispersion             -0.062056592512 Eh    ::
         :: repulsion energy           1.085975655471 Eh    ::
         :: add. restraining           0.000042340447 Eh    ::
         :: total charge               0.000000000000 e     ::
         :::::::::::::::::::::::::::::::::::::::::::::::::::::

           -------------------------------------------------
          |                Property Printout                |
           -------------------------------------------------

    * Orbital Energies and Occupations

         #    Occupation            Energy/Eh            Energy/eV
      -------------------------------------------------------------
         1        2.0000           -0.6940475             -18.8860
       ...           ...                  ...                  ...
        63        2.0000           -0.4365210             -11.8783
        64        2.0000           -0.4352738             -11.8444
        65        2.0000           -0.4310204             -11.7287
        66        2.0000           -0.4243444             -11.5470
        67        2.0000           -0.4180956             -11.3770
        68        2.0000           -0.4109570             -11.1827
        69        2.0000           -0.4032083             -10.9719
        70        2.0000           -0.4002788             -10.8921
        71        2.0000           -0.3980424             -10.8313
        72        2.0000           -0.3946528             -10.7390
        73        2.0000           -0.3866192             -10.5204
        74        2.0000           -0.3531104              -9.6086
        75        2.0000           -0.3498165              -9.5190 (HOMO)
        76                         -0.2220042              -6.0410 (LUMO)
        77                         -0.1909137              -5.1950
        78                         -0.1841031              -5.0097
        79                         -0.1482043              -4.0328
        80                         -0.0935337              -2.5452
        81                          0.0003891               0.0106
        82                          0.0123045               0.3348
        83                          0.0192058               0.5226
        84                          0.0286260               0.7790
        85                          0.0313611               0.8534
        86                          0.0524903               1.4283
       ...                                ...                  ...
       144                          0.6738135              18.3354
      -------------------------------------------------------------
                  HL-Gap            0.1278123 Eh            3.4780 eV
             Fermi-level           -0.2859104 Eh           -7.7800 eV

     #   Z          covCN         q      C6AA      α(0)
     1   6 C        3.755    -0.118    22.807     6.809
     2   6 C        3.860     0.130    18.440     6.107
     3   8 O        1.638    -0.378    20.434     6.102
     4   6 C        3.755    -0.117    22.787     6.807
     5   6 C        3.862     0.129    18.449     6.108
     6   6 C        3.755    -0.118    22.815     6.811
     7   6 C        3.755    -0.117    22.788     6.807
     8   8 O        1.638    -0.370    20.294     6.081
     9   5 B        2.660     0.441    15.451     6.617
    10   6 C        3.833    -0.059    21.602     6.613
    11   6 C        2.891    -0.044    29.098     8.844
    12   6 C        2.910    -0.034    28.856     8.808
    13   1 H        0.925     0.024     2.678     2.559
    14   6 C        3.866    -0.016    20.811     6.487
    15   1 H        0.924     0.043     2.413     2.429
    16   6 C        2.870    -0.086    30.146     9.000
    17   5 B        2.660     0.431    15.566     6.642
    18   8 O        1.638    -0.371    20.311     6.084
    19   6 C        3.859     0.129    18.453     6.109
    20   6 C        3.755    -0.117    22.791     6.807
    21   6 C        3.755    -0.116    22.768     6.804
    22   6 C        3.859     0.129    18.449     6.109
    23   6 C        3.755    -0.116    22.775     6.805
    24   6 C        3.755    -0.117    22.797     6.808
    25   8 O        1.638    -0.374    20.368     6.092
    26   6 C        2.895    -0.029    28.719     8.786
    27   6 C        3.860    -0.015    20.811     6.488
    28   1 H        0.925     0.039     2.460     2.453
    29   6 C        3.864    -0.006    20.652     6.462
    30   6 C        2.889    -0.040    28.981     8.826
    31   6 C        2.910    -0.032    28.791     8.799
    32   1 H        0.925     0.025     2.665     2.553
    33   1 H        0.925     0.055     2.255     2.348
    34   1 H        0.925     0.041     2.438     2.442
    35   1 H        0.925     0.052     2.289     2.366
    36   1 H        0.925     0.053     2.287     2.365
    37   1 H        0.925     0.044     2.393     2.419
    38   1 H        0.925     0.044     2.401     2.423
    39   1 H        0.925     0.041     2.435     2.440
    40   1 H        0.925     0.053     2.279     2.361
    41   1 H        0.925     0.056     2.248     2.345
    42   1 H        0.925     0.044     2.398     2.421
    43   1 H        0.925     0.054     2.274     2.358
    44   1 H        0.925     0.044     2.400     2.422
    45   1 H        0.925     0.033     2.547     2.496
    46   1 H        0.925     0.054     2.272     2.357
    47   1 H        0.925     0.039     2.464     2.455
    48   1 H        0.925     0.052     2.300     2.372
    49   1 H        0.925     0.052     2.298     2.371
    50   1 H        0.925     0.043     2.406     2.426
    51   1 H        0.925     0.042     2.428     2.437
    52   1 H        0.925     0.042     2.421     2.433
    53   1 H        0.925     0.052     2.300     2.372
    54   1 H        0.925     0.043     2.404     2.425
    55   1 H        0.925     0.039     2.458     2.452
    56   1 H        0.925     0.052     2.300     2.372
    57   1 H        0.925     0.054     2.275     2.359
    58   1 H        0.925     0.036     2.505     2.475
    59   1 H        0.925     0.033     2.541     2.493
    60   1 H        0.925     0.023     2.683     2.561

 Mol. C6AA /au·bohr⁶  :      32807.658202
 Mol. C8AA /au·bohr⁸  :     759472.522465
 Mol. α(0) /au        :        273.179095


Wiberg/Mayer (AO) data.
largest (>0.10) Wiberg bond orders for each atom

 ---------------------------------------------------------------------------
     #   Z sym  total        # sym  WBO       # sym  WBO       # sym  WBO
 ---------------------------------------------------------------------------
     1   6 C    3.994 --     2 C    0.997    34 H    0.984    33 H    0.982
                            35 H    0.982
     2   6 C    3.942 --     1 C    0.997     4 C    0.991     3 O    0.949
                             5 C    0.938
     3   8 O    2.226 --     9 B    1.129     2 C    0.949
     4   6 C    3.994 --     2 C    0.991    38 H    0.984    37 H    0.984
                            36 H    0.983
     5   6 C    3.940 --     6 C    0.997     7 C    0.991     8 O    0.948
                             2 C    0.938
     6   6 C    3.994 --     5 C    0.997    39 H    0.984    41 H    0.982
                            40 H    0.982
     7   6 C    3.995 --     5 C    0.991    42 H    0.984    44 H    0.984
                            43 H    0.983
     8   8 O    2.236 --     9 B    1.141     5 C    0.948
     9   5 B    3.374 --     8 O    1.141     3 O    1.129    10 C    0.988
    10   6 C    3.931 --    11 C    1.063     9 B    0.988    29 C    0.871
                            27 C    0.843
    11   6 C    3.990 --    12 C    1.870    10 C    1.063    45 H    0.965
    12   6 C    3.990 --    11 C    1.870    14 C    0.984    13 H    0.968
    13   1 H    0.999 --    12 C    0.968
    14   6 C    3.996 --    31 C    0.988    12 C    0.984    15 H    0.972
                            16 C    0.971
    15   1 H    0.998 --    14 C    0.972
    16   6 C    3.975 --    26 C    1.791    17 B    1.007    14 C    0.971
    17   5 B    3.376 --    18 O    1.125    25 O    1.124    16 C    1.007
    18   8 O    2.231 --    17 B    1.125    19 C    0.954
    19   6 C    3.944 --    20 C    0.997    21 C    0.990    18 O    0.954
                            22 C    0.936
    20   6 C    3.994 --    19 C    0.997    47 H    0.985    46 H    0.983
                            48 H    0.982
    21   6 C    3.994 --    19 C    0.990    51 H    0.985    50 H    0.984
                            49 H    0.983
    22   6 C    3.943 --    24 C    0.996    23 C    0.990    25 O    0.954
                            19 C    0.936
    23   6 C    3.995 --    22 C    0.990    52 H    0.985    54 H    0.984
                            53 H    0.983
    24   6 C    3.994 --    22 C    0.996    55 H    0.985    57 H    0.983
                            56 H    0.982
    25   8 O    2.228 --    17 B    1.124    22 C    0.954
    26   6 C    3.989 --    16 C    1.791    27 C    1.092    58 H    0.964
    27   6 C    3.945 --    26 C    1.092    28 H    0.970    29 C    0.900
                            10 C    0.843
    28   1 H    0.998 --    27 C    0.970
    29   6 C    3.950 --    30 C    1.072    59 H    0.970    27 C    0.900
                            10 C    0.871
    30   6 C    3.990 --    31 C    1.864    29 C    1.072    60 H    0.967
    31   6 C    3.988 --    30 C    1.864    14 C    0.988    32 H    0.969
    32   1 H    0.999 --    31 C    0.969
    33   1 H    0.997 --     1 C    0.982
    34   1 H    0.998 --     1 C    0.984
    35   1 H    0.997 --     1 C    0.982
    36   1 H    0.997 --     4 C    0.983
    37   1 H    0.998 --     4 C    0.984
    38   1 H    0.998 --     4 C    0.984
    39   1 H    0.998 --     6 C    0.984
    40   1 H    0.997 --     6 C    0.982
    41   1 H    0.997 --     6 C    0.982
    42   1 H    0.998 --     7 C    0.984
    43   1 H    0.997 --     7 C    0.983
    44   1 H    0.998 --     7 C    0.984
    45   1 H    0.999 --    11 C    0.965
    46   1 H    0.997 --    20 C    0.983
    47   1 H    0.998 --    20 C    0.985
    48   1 H    0.997 --    20 C    0.982
    49   1 H    0.997 --    21 C    0.983
    50   1 H    0.998 --    21 C    0.984
    51   1 H    0.998 --    21 C    0.985
    52   1 H    0.998 --    23 C    0.985
    53   1 H    0.997 --    23 C    0.983
    54   1 H    0.998 --    23 C    0.984
    55   1 H    0.998 --    24 C    0.985
    56   1 H    0.997 --    24 C    0.982
    57   1 H    0.997 --    24 C    0.983
    58   1 H    0.999 --    26 C    0.964
    59   1 H    0.998 --    29 C    0.970
    60   1 H    0.999 --    30 C    0.967
 ---------------------------------------------------------------------------

Topologies differ in total number of bonds
Writing topology from bond orders to xtbtopo.mol

molecular dipole:
                 x           y           z       tot (Debye)
 q only:       -0.220      -0.566      -0.232
   full:       -0.293      -0.668      -0.256       1.965
molecular quadrupole (traceless):
                xx          xy          yy          xz          yz          zz
 q only:      -41.581      13.730      80.654     -28.596      -0.927     -39.073
  q+dip:      -50.305      20.675      93.795     -33.217      -2.693     -43.489
   full:      -50.130      20.141      95.121     -34.484      -3.975     -44.991

           -------------------------------------------------
          |                Geometry Summary                 |
           -------------------------------------------------

      molecular mass/u    :      382.1099696
   center of mass at/Å    :        2.9568312     -35.9351722      21.8266088
  moments of inertia/u·Å² :        0.1155768E+04   0.6858190E+04   0.7120944E+04
rotational constants/cm⁻¹ :        0.1458565E-01   0.2458029E-02   0.2367331E-02

 * 59 selected distances

     #   Z          #   Z                                           value/Å
     1   6 C        2   6 C                                       1.5263699
     2   6 C        3   8 O                                       1.4292758
     2   6 C        4   6 C                                       1.5337594
     5   6 C        6   6 C                                       1.5262715
     5   6 C        7   6 C                                       1.5335548
     5   6 C        8   8 O                                       1.4298752
     3   8 O        9   5 B                                       1.3678192
     8   8 O        9   5 B                                       1.3638177
     9   5 B       10   6 C                                       1.5711881 (max)
    10   6 C       11   6 C                                       1.4736041
    11   6 C       12   6 C                                       1.3292312
    12   6 C       13   1 H                                       1.0826213
    14   6 C       15   1 H                                       1.0913014
    16   6 C       17   5 B                                       1.5573022
    17   5 B       18   8 O                                       1.3687374
    18   8 O       19   6 C                                       1.4262984
    19   6 C       20   6 C                                       1.5270512
    19   6 C       21   6 C                                       1.5342755
    22   6 C       23   6 C                                       1.5342505
    22   6 C       24   6 C                                       1.5272751
    17   5 B       25   8 O                                       1.3691016
    22   6 C       25   8 O                                       1.4266682
    16   6 C       26   6 C                                       1.3406985
    10   6 C       27   6 C                                       1.5380245
    26   6 C       27   6 C                                       1.4574212
    27   6 C       28   1 H                                       1.0830869
    10   6 C       29   6 C                                       1.5021948
    27   6 C       29   6 C                                       1.5074035
    29   6 C       30   6 C                                       1.4656000
    30   6 C       31   6 C                                       1.3294931
    31   6 C       32   1 H                                       1.0825948
     1   6 C       33   1 H                                       1.0872300
     1   6 C       34   1 H                                       1.0865685
     1   6 C       35   1 H                                       1.0851357
     4   6 C       36   1 H                                       1.0876404
     4   6 C       37   1 H                                       1.0872187
     4   6 C       38   1 H                                       1.0858528
     6   6 C       39   1 H                                       1.0867041
     6   6 C       40   1 H                                       1.0851064
     6   6 C       41   1 H                                       1.0871121
     7   6 C       42   1 H                                       1.0857960
     7   6 C       43   1 H                                       1.0874861
     7   6 C       44   1 H                                       1.0872543
    11   6 C       45   1 H                                       1.0823906 (min)
    20   6 C       46   1 H                                       1.0872270
    20   6 C       47   1 H                                       1.0867784
    20   6 C       48   1 H                                       1.0851515
    21   6 C       49   1 H                                       1.0876403
    21   6 C       50   1 H                                       1.0871499
    21   6 C       51   1 H                                       1.0859113
    23   6 C       52   1 H                                       1.0859424
    23   6 C       53   1 H                                       1.0876097
    23   6 C       54   1 H                                       1.0870353
    24   6 C       55   1 H                                       1.0867280
    24   6 C       56   1 H                                       1.0850459
    24   6 C       57   1 H                                       1.0871488
    26   6 C       58   1 H                                       1.0830274
    29   6 C       59   1 H                                       1.0846557
    30   6 C       60   1 H                                       1.0833516

 * 5 distinct bonds (by element types)

   Z      Z             #   av. dist./Å        max./Å        min./Å
   1 H    6 C          32     1.0859845     1.0913014     1.0823906
   5 B    6 C           2     1.5642452     1.5711881     1.5573022
   6 C    6 C          17     1.4815576     1.5380245     1.3292312
   5 B    8 O           4     1.3673690     1.3691016     1.3638177
   6 C    8 O           4     1.4280294     1.4298752     1.4262984


optimized geometry written to: xtbopt.xyz


           -------------------------------------------------
          | TOTAL ENERGY              -82.321801913066 Eh   |
          | GRADIENT NORM               0.000821550992 Eh/α |
          | HOMO-LUMO GAP               3.477950221952 eV   |
           -------------------------------------------------

------------------------------------------------------------------------
 * finished run on 2022/07/09 at 18:33:45.992     
------------------------------------------------------------------------
 total:
 * wall-time:     0 d,  0 h,  0 min,  1.293 sec
 *  cpu-time:     0 d,  0 h,  0 min,  1.680 sec
 * ratio c/w:     1.300 speedup
 SCF:
 * wall-time:     0 d,  0 h,  0 min,  0.091 sec
 *  cpu-time:     0 d,  0 h,  0 min,  0.112 sec
 * ratio c/w:     1.226 speedup
 ANC optimizer:
 * wall-time:     0 d,  0 h,  0 min,  1.191 sec
 *  cpu-time:     0 d,  0 h,  0 min,  1.556 sec
 * ratio c/w:     1.306 speedup

