      -----------------------------------------------------------      
     |                   =====================                   |     
     |                           x T B                           |     
     |                   =====================                   |     
     |                         S. Grimme                         |     
     |          Mulliken Center for Theoretical Chemistry        |     
     |                    University of Bonn                     |     
      -----------------------------------------------------------      

   * xtb version 6.5.0 (homebrew) compiled by 'nhattrup@GPGGRP-SHANNON.CHEME.CMU.EDU' on 

   xtb is free software: you can redistribute it and/or modify it under
   the terms of the GNU Lesser General Public License as published by
   the Free Software Foundation, either version 3 of the License, or
   (at your option) any later version.
   
   xtb is distributed in the hope that it will be useful,
   but WITHOUT ANY WARRANTY; without even the implied warranty of
   MERCHANTABILITY or FITNESS FOR A PARTICULAR PURPOSE.  See the
   GNU Lesser General Public License for more details.
   
   Cite this work as:
   * C. Bannwarth, E. Caldeweyher, S. Ehlert, A. Hansen, P. Pracht,
     J. Seibert, S. Spicher, S. Grimme, WIREs Comput. Mol. Sci., 2020, 11,
     e01493. DOI: 10.1002/wcms.1493
   
   for GFN2-xTB:
   * C. Bannwarth, S. Ehlert and S. Grimme., J. Chem. Theory Comput., 2019,
     15, 1652-1671. DOI: 10.1021/acs.jctc.8b01176
   for GFN1-xTB:
   * S. Grimme, C. Bannwarth, P. Shushkov, J. Chem. Theory Comput., 2017,
     13, 1989-2009. DOI: 10.1021/acs.jctc.7b00118
   for GFN0-xTB:
   * P. Pracht, E. Caldeweyher, S. Ehlert, S. Grimme, ChemRxiv, 2019, preprint.
     DOI: 10.26434/chemrxiv.8326202.v1
   for GFN-FF:
   * S. Spicher and S. Grimme, Angew. Chem. Int. Ed., 2020, 59, 15665-15673.
     DOI: 10.1002/anie.202004239
   
   for ALPB and GBSA implicit solvation:
   * S. Ehlert, M. Stahn, S. Spicher, S. Grimme, J. Chem. Theory Comput.,
     2021, 17, 4250-4261. DOI: 10.1021/acs.jctc.1c00471
   
   for DFT-D4:
   * E. Caldeweyher, C. Bannwarth and S. Grimme, J. Chem. Phys., 2017,
     147, 034112. DOI: 10.1063/1.4993215
   * E. Caldeweyher, S. Ehlert, A. Hansen, H. Neugebauer, S. Spicher,
     C. Bannwarth and S. Grimme, J. Chem. Phys., 2019, 150, 154122.
     DOI: 10.1063/1.5090222
   * E. Caldeweyher, J.-M. Mewes, S. Ehlert and S. Grimme, Phys. Chem. Chem. Phys.
     2020, 22, 8499-8512. DOI: 10.1039/D0CP00502A
   
   for sTDA-xTB:
   * S. Grimme and C. Bannwarth, J. Chem. Phys., 2016, 145, 054103.
     DOI: 10.1063/1.4959605
   
   in the mass-spec context:
   * V. Asgeirsson, C. Bauer and S. Grimme, Chem. Sci., 2017, 8, 4879.
     DOI: 10.1039/c7sc00601b
   * J. Koopman and S. Grimme, ACS Omega 2019, 4, 12, 15120-15133.
     DOI: 10.1021/acsomega.9b02011
   
   for metadynamics refer to:
   * S. Grimme, J. Chem. Theory Comput., 2019, 155, 2847-2862
     DOI: 10.1021/acs.jctc.9b00143
   
   for SPH calculations refer to:
   * S. Spicher and S. Grimme, J. Chem. Theory Comput., 2021, 17, 1701-1714
     DOI: 10.1021/acs.jctc.0c01306
   
   with help from (in alphabetical order)
   P. Atkinson, C. Bannwarth, F. Bohle, G. Brandenburg, E. Caldeweyher
   M. Checinski, S. Dohm, S. Ehlert, S. Ehrlich, I. Gerasimov, C. Hölzer
   A. Katbashev, J. Koopman, C. Lavigne, S. Lehtola, F. März, M. Müller,
   F. Musil, H. Neugebauer, J. Pisarek, C. Plett, P. Pracht, F. Pultar,
   J. Seibert, P. Shushkov, S. Spicher, M. Stahn, M. Steiner, T. Strunk,
   J. Stückrath, T. Rose, and J. Unsleber
   
 * started run on 2022/07/09 at 18:33:05.996     

           -------------------------------------------------
          |                Calculation Setup                |
           -------------------------------------------------

          program call               : /opt/homebrew/bin/xtb bvl_bpin2_scan_6-0_xtb.xyz --chrg 0 --uhf 0 --opt --input xcontrol_bvl_bpin2_scan_6-0_xtb
          coordinate file            : bvl_bpin2_scan_6-0_xtb.xyz
          omp threads                :                     1

   ID    Z sym.   atoms
    1    6 C      1, 2, 4-7, 10-12, 14, 16, 19-24, 26, 27, 29-31
    2    8 O      3, 8, 18, 25
    3    5 B      9, 17
    4    1 H      13, 15, 28, 32-60
constraining bond 12 31 to    2.1667000 Å, actual value:    2.0509568 Å
constraining bond 10 29 to    2.5000000 Å, actual value:    2.4973004 Å

           -------------------------------------------------
          |                 G F N 2 - x T B                 |
           -------------------------------------------------

        Reference                      10.1021/acs.jctc.8b01176
      * Hamiltonian:
        H0-scaling (s, p, d)           1.850000    2.230000    2.230000
        zeta-weighting                 0.500000
      * Dispersion:
        s8                             2.700000
        a1                             0.520000
        a2                             5.000000
        s9                             5.000000
      * Repulsion:
        kExp                           1.500000    1.000000
        rExp                           1.000000
      * Coulomb:
        alpha                          2.000000
        third order                    shell-resolved
        anisotropic                    true
        a3                             3.000000
        a5                             4.000000
        cn-shift                       1.200000
        cn-exp                         4.000000
        max-rad                        5.000000


          ...................................................
          :                      SETUP                      :
          :.................................................:
          :  # basis functions                 144          :
          :  # atomic orbitals                 144          :
          :  # shells                           88          :
          :  # electrons                       150          :
          :  max. iterations                   250          :
          :  Hamiltonian                  GFN2-xTB          :
          :  restarted?                      false          :
          :  GBSA solvation                  false          :
          :  PC potential                    false          :
          :  electronic temp.          300.0000000     K    :
          :  accuracy                    1.0000000          :
          :  -> integral cutoff          0.2500000E+02      :
          :  -> integral neglect         0.1000000E-07      :
          :  -> SCF convergence          0.1000000E-05 Eh   :
          :  -> wf. convergence          0.1000000E-03 e    :
          :  Broyden damping             0.4000000          :
          ...................................................

 iter      E             dE          RMSdq      gap      omega  full diag
   1    -82.9249606 -0.829250E+02  0.472E+00    1.84       0.0  T
   2    -83.2956973 -0.370737E+00  0.292E+00    1.74       1.0  T
   3    -83.2835417  0.121556E-01  0.161E+00    1.93       1.0  T
   4    -83.2541392  0.294025E-01  0.123E+00    1.97       1.0  T
   5    -83.3508843 -0.967451E-01  0.290E-01    1.82       1.0  T
   6    -83.3553969 -0.451259E-02  0.119E-01    1.82       1.0  T
   7    -83.3551735  0.223387E-03  0.839E-02    1.81       1.0  T
   8    -83.3555381 -0.364591E-03  0.201E-02    1.81       1.0  T
   9    -83.3555555 -0.173985E-04  0.737E-03    1.81       1.8  T
  10    -83.3555567 -0.120786E-05  0.394E-03    1.81       3.3  T
  11    -83.3555569 -0.211201E-06  0.176E-03    1.81       7.3  T
  12    -83.3555570 -0.995910E-07  0.366E-04    1.81      35.2  T
  13    -83.3555570 -0.122566E-08  0.189E-04    1.81      68.3  T

   *** convergence criteria satisfied after 13 iterations ***

         #    Occupation            Energy/Eh            Energy/eV
      -------------------------------------------------------------
         1        2.0000           -0.6874758             -18.7072
       ...           ...                  ...                  ...
        69        2.0000           -0.4010955             -10.9144
        70        2.0000           -0.3971395             -10.8067
        71        2.0000           -0.3949854             -10.7481
        72        2.0000           -0.3935309             -10.7085
        73        2.0000           -0.3924412             -10.6789
        74        2.0000           -0.3642543              -9.9119
        75        2.0000           -0.3283202              -8.9340 (HOMO)
        76                         -0.2616853              -7.1208 (LUMO)
        77                         -0.2182683              -5.9394
        78                         -0.1874581              -5.1010
        79                         -0.1381197              -3.7584
        80                         -0.0971357              -2.6432
       ...                                ...                  ...
       144                          0.6750062              18.3679
      -------------------------------------------------------------
                  HL-Gap            0.0666348 Eh            1.8132 eV
             Fermi-level           -0.2950027 Eh           -8.0274 eV

 SCC (total)                   0 d,  0 h,  0 min,  0.071 sec
 SCC setup                      ...        0 min,  0.000 sec (  0.358%)
 Dispersion                     ...        0 min,  0.001 sec (  0.714%)
 classical contributions        ...        0 min,  0.000 sec (  0.259%)
 integral evaluation            ...        0 min,  0.006 sec (  8.811%)
 iterations                     ...        0 min,  0.036 sec ( 50.386%)
 molecular gradient             ...        0 min,  0.028 sec ( 38.960%)
 printout                       ...        0 min,  0.000 sec (  0.504%)

         :::::::::::::::::::::::::::::::::::::::::::::::::::::
         ::                     SUMMARY                     ::
         :::::::::::::::::::::::::::::::::::::::::::::::::::::
         :: total energy             -82.187774970202 Eh    ::
         :: gradient norm              1.187488200925 Eh/a0 ::
         :: HOMO-LUMO gap              1.813226387154 eV    ::
         ::.................................................::
         :: SCC energy               -83.355556991351 Eh    ::
         :: -> isotropic ES            0.147638910196 Eh    ::
         :: -> anisotropic ES          0.012749279269 Eh    ::
         :: -> anisotropic XC          0.027396525551 Eh    ::
         :: -> dispersion             -0.061922034636 Eh    ::
         :: repulsion energy           1.071257175217 Eh    ::
         :: add. restraining           0.095731550218 Eh    ::
         :: total charge              -0.000000000000 e     ::
         :::::::::::::::::::::::::::::::::::::::::::::::::::::

      ----------------------------------------------------------- 
     |                   =====================                   |
     |                        A N C O P T                        |
     |                   =====================                   |
     |               Approximate Normal Coordinate               |
     |                Rational Function Optimizer                |
      ----------------------------------------------------------- 

          ...................................................
          :                      SETUP                      :
          :.................................................:
          :   optimization level            normal          :
          :   max. optcycles                   200          :
          :   ANC micro-cycles                  20          :
          :   degrees of freedom               174          :
          :.................................................:
          :   RF solver                   davidson          :
          :   write xtbopt.log                true          :
          :   linear?                        false          :
          :   energy convergence         0.5000000E-05 Eh   :
          :   grad. convergence          0.1000000E-02 Eh/α :
          :   maximium RF displ.         1.0000000          :
          :   Hlow (freq-cutoff)         0.1000000E-01      :
          :   Hmax (freq-cutoff)         5.0000000          :
          :   S6 in model hess.         20.0000000          :
          ...................................................

generating ANC from model Hessian ...
Using Lindh-Hessian (1995)
 Shifting diagonal of input Hessian by   0.22243521207295430     
 Lowest  eigenvalues of input Hessian
    0.010000    0.128422    0.000000    0.000000    0.000000    0.000000
    0.000000    0.000000    0.222520    0.222567    0.222685    0.223703
    0.224210    0.224642    0.225701    0.225758    0.226980    0.227331
 Highest eigenvalues
    1.934334    2.080477    2.100281    2.117401    8.850754    8.908928


........................................................................
.............................. CYCLE    1 ..............................
........................................................................
   1    -83.3555570 -0.833556E+02  0.800E-05    1.81       0.0  T
   2    -83.3555570 -0.239851E-09  0.567E-05    1.81     227.6  T
   3    -83.3555570 -0.198952E-09  0.234E-05    1.81     551.4  T
     SCC iter.                  ...        0 min,  0.009 sec
     gradient                   ...        0 min,  0.028 sec
 * total energy  :   -82.1877750 Eh     change       -0.9474519E-09 Eh
   gradient norm :     1.1874882 Eh/α   predicted     0.0000000E+00 (-100.00%)
   displ. norm   :     0.2324651 α      lambda       -0.2694297E+00
   maximum displ.:     0.1780706 α      in ANC's #173, #174, #163, ...

........................................................................
.............................. CYCLE    2 ..............................
........................................................................
   1    -83.3457915 -0.833458E+02  0.203E-01    1.31       0.0  T
   2    -83.3457572  0.342877E-04  0.163E-01    1.32       1.0  T
   3    -83.3458181 -0.608947E-04  0.104E-01    1.31       1.0  T
   4    -83.3458175  0.553647E-06  0.809E-02    1.31       1.0  T
   5    -83.3462248 -0.407297E-03  0.288E-02    1.31       1.0  T
   6    -83.3462841 -0.593112E-04  0.405E-03    1.31       3.2  T
   7    -83.3462844 -0.218233E-06  0.247E-03    1.31       5.2  T
   8    -83.3462845 -0.140612E-06  0.608E-04    1.31      21.2  T
   9    -83.3462845 -0.107493E-07  0.257E-04    1.31      50.2  T
     SCC iter.                  ...        0 min,  0.025 sec
     gradient                   ...        0 min,  0.027 sec
 * total energy  :   -82.2477688 Eh     change       -0.5999382E-01 Eh
   gradient norm :     0.6710334 Eh/α   predicted    -0.1428366E+00 ( 138.09%)
   displ. norm   :     0.0824415 α      lambda       -0.5448394E-01
   maximum displ.:     0.0647344 α      in ANC's #173, #174, #172, ...

........................................................................
.............................. CYCLE    3 ..............................
........................................................................
   1    -83.3475251 -0.833475E+02  0.736E-02    1.46       0.0  T
   2    -83.3475401 -0.150086E-04  0.602E-02    1.45       1.0  T
   3    -83.3475792 -0.390787E-04  0.346E-02    1.46       1.0  T
   4    -83.3475926 -0.133773E-04  0.196E-02    1.45       1.0  T
   5    -83.3476085 -0.158937E-04  0.121E-02    1.46       1.1  T
   6    -83.3476180 -0.955514E-05  0.150E-03    1.46       8.6  T
   7    -83.3476181 -0.483660E-07  0.866E-04    1.46      14.9  T
   8    -83.3476181 -0.159264E-07  0.284E-04    1.46      45.4  T
     SCC iter.                  ...        0 min,  0.022 sec
     gradient                   ...        0 min,  0.028 sec
 * total energy  :   -82.2754727 Eh     change       -0.2770393E-01 Eh
   gradient norm :     0.0211012 Eh/α   predicted    -0.2742779E-01 (  -1.00%)
   displ. norm   :     0.0240909 α      lambda       -0.3646450E-03
   maximum displ.:     0.0095145 α      in ANC's #37, #117, #74, ...

........................................................................
.............................. CYCLE    4 ..............................
........................................................................
   1    -83.3466066 -0.833466E+02  0.176E-02    1.45       0.0  T
   2    -83.3466066 -0.127854E-07  0.116E-02    1.44       1.1  T
   3    -83.3465963  0.103169E-04  0.139E-02    1.45       1.0  T
   4    -83.3466070 -0.107139E-04  0.477E-03    1.44       2.7  T
   5    -83.3466084 -0.135736E-05  0.106E-03    1.44      12.2  T
   6    -83.3466085 -0.839563E-07  0.283E-04    1.44      45.6  T
   7    -83.3466085 -0.244590E-08  0.118E-04    1.44     109.7  T
     SCC iter.                  ...        0 min,  0.019 sec
     gradient                   ...        0 min,  0.027 sec
 * total energy  :   -82.2757817 Eh     change       -0.3089515E-03 Eh
   gradient norm :     0.0117453 Eh/α   predicted    -0.1937015E-03 ( -37.30%)
   displ. norm   :     0.0543976 α      lambda       -0.4513625E-03
   maximum displ.:     0.0254442 α      in ANC's #37, #1, #117, ...

........................................................................
.............................. CYCLE    5 ..............................
........................................................................
   1    -83.3453479 -0.833453E+02  0.364E-02    1.42       0.0  T
   2    -83.3453457  0.225655E-05  0.234E-02    1.42       1.0  T
   3    -83.3452917  0.539990E-04  0.317E-02    1.42       1.0  T
   4    -83.3453499 -0.581710E-04  0.701E-03    1.42       1.8  T
   5    -83.3453531 -0.321418E-05  0.107E-03    1.42      12.1  T
   6    -83.3453531 -0.630744E-07  0.523E-04    1.42      24.7  T
   7    -83.3453531 -0.112198E-07  0.238E-04    1.42      54.3  T
     SCC iter.                  ...        0 min,  0.019 sec
     gradient                   ...        0 min,  0.028 sec
 * total energy  :   -82.2759980 Eh     change       -0.2163355E-03 Eh
   gradient norm :     0.0083558 Eh/α   predicted    -0.2264000E-03 (   4.65%)
   displ. norm   :     0.1782975 α      lambda       -0.4310964E-03
   maximum displ.:     0.1700367 α      in ANC's #1, #37, #74, ...

........................................................................
.............................. CYCLE    6 ..............................
........................................................................
   1    -83.3427654 -0.833428E+02  0.108E-01    1.40       0.0  T
   2    -83.3427672 -0.177698E-05  0.653E-02    1.40       1.0  T
   3    -83.3425623  0.204941E-03  0.611E-02    1.39       1.0  T
   4    -83.3427490 -0.186741E-03  0.183E-02    1.40       1.0  T
   5    -83.3427769 -0.278752E-04  0.239E-03    1.40       5.4  T
   6    -83.3427770 -0.112605E-06  0.144E-03    1.40       9.0  T
   7    -83.3427771 -0.705617E-07  0.353E-04    1.40      36.6  T
   8    -83.3427771 -0.272890E-08  0.192E-04    1.40      67.4  T
     SCC iter.                  ...        0 min,  0.022 sec
     gradient                   ...        0 min,  0.028 sec
 * total energy  :   -82.2747923 Eh     change        0.1205669E-02 Eh
   gradient norm :     0.0359391 Eh/α   predicted    -0.2224383E-03 (-118.45%)
   displ. norm   :     0.1481677 α      lambda       -0.2577491E-02
   maximum displ.:     0.1438289 α      in ANC's #1, #37, #117, ...

........................................................................
.............................. CYCLE    7 ..............................
........................................................................
   1    -83.3459818 -0.833460E+02  0.909E-02    1.42       0.0  T
   2    -83.3459835 -0.178145E-05  0.549E-02    1.42       1.0  T
   3    -83.3458498  0.133759E-03  0.495E-02    1.42       1.0  T
   4    -83.3459704 -0.120575E-03  0.155E-02    1.42       1.0  T
   5    -83.3459902 -0.198788E-04  0.203E-03    1.42       6.4  T
   6    -83.3459903 -0.810518E-07  0.122E-03    1.42      10.6  T
   7    -83.3459904 -0.523939E-07  0.258E-04    1.42      50.0  T
   8    -83.3459904 -0.121200E-08  0.129E-04    1.42     100.2  T
     SCC iter.                  ...        0 min,  0.022 sec
     gradient                   ...        0 min,  0.028 sec
 * total energy  :   -82.2760713 Eh     change       -0.1278977E-02 Eh
   gradient norm :     0.0076884 Eh/α   predicted    -0.1317384E-02 (   3.00%)
   displ. norm   :     0.0127430 α      lambda       -0.3635202E-04
   maximum displ.:     0.0084067 α      in ANC's #37, #1, #39, ...

........................................................................
.............................. CYCLE    8 ..............................
........................................................................
   1    -83.3463569 -0.833464E+02  0.659E-03    1.42       0.0  T
   2    -83.3463569  0.386108E-08  0.399E-03    1.42       3.2  T
   3    -83.3463561  0.816293E-06  0.368E-03    1.42       3.5  T
   4    -83.3463569 -0.796618E-06  0.860E-04    1.42      15.0  T
   5    -83.3463570 -0.589645E-07  0.210E-04    1.42      61.5  T
     SCC iter.                  ...        0 min,  0.014 sec
     gradient                   ...        0 min,  0.028 sec
 * total energy  :   -82.2761042 Eh     change       -0.3291334E-04 Eh
   gradient norm :     0.0038197 Eh/α   predicted    -0.1982316E-04 ( -39.77%)
   displ. norm   :     0.0590003 α      lambda       -0.1293733E-03
   maximum displ.:     0.0419204 α      in ANC's #37, #39, #17, ...

........................................................................
.............................. CYCLE    9 ..............................
........................................................................
   1    -83.3476910 -0.833477E+02  0.296E-02    1.42       0.0  T
   2    -83.3476910  0.479069E-07  0.176E-02    1.42       1.0  T
   3    -83.3476787  0.122697E-04  0.138E-02    1.42       1.0  T
   4    -83.3476912 -0.124664E-04  0.161E-03    1.42       8.0  T
   5    -83.3476914 -0.169256E-06  0.485E-04    1.42      26.6  T
   6    -83.3476914 -0.492074E-08  0.318E-04    1.42      40.6  T
     SCC iter.                  ...        0 min,  0.016 sec
     gradient                   ...        0 min,  0.028 sec
 * total energy  :   -82.2761857 Eh     change       -0.8144897E-04 Eh
   gradient norm :     0.0069188 Eh/α   predicted    -0.6418684E-04 ( -21.19%)
   displ. norm   :     0.0361972 α      lambda       -0.4062752E-04
   maximum displ.:     0.0256962 α      in ANC's #37, #39, #17, ...

........................................................................
.............................. CYCLE   10 ..............................
........................................................................
   1    -83.3480959 -0.833481E+02  0.173E-02    1.41       0.0  T
   2    -83.3480959 -0.429786E-07  0.103E-02    1.41       1.3  T
   3    -83.3480953  0.618238E-06  0.329E-03    1.41       3.9  T
   4    -83.3480959 -0.554886E-06  0.119E-03    1.41      10.9  T
   5    -83.3480960 -0.961819E-07  0.341E-04    1.41      37.9  T
   6    -83.3480960 -0.430271E-08  0.162E-04    1.41      79.6  T
     SCC iter.                  ...        0 min,  0.016 sec
     gradient                   ...        0 min,  0.028 sec
 * total energy  :   -82.2762124 Eh     change       -0.2677150E-04 Eh
   gradient norm :     0.0051488 Eh/α   predicted    -0.2040995E-04 ( -23.76%)
   displ. norm   :     0.0200962 α      lambda       -0.1691722E-04
   maximum displ.:     0.0132970 α      in ANC's #37, #16, #17, ...

........................................................................
.............................. CYCLE   11 ..............................
........................................................................
   1    -83.3480062 -0.833480E+02  0.927E-03    1.41       0.0  T
   2    -83.3480062  0.337994E-08  0.562E-03    1.41       2.3  T
   3    -83.3480050  0.125786E-05  0.449E-03    1.41       2.9  T
   4    -83.3480062 -0.123506E-05  0.986E-04    1.41      13.1  T
   5    -83.3480063 -0.684726E-07  0.219E-04    1.41      59.0  T
   6    -83.3480063 -0.213592E-08  0.972E-05    1.41     132.9  T
     SCC iter.                  ...        0 min,  0.017 sec
     gradient                   ...        0 min,  0.027 sec
 * total energy  :   -82.2762242 Eh     change       -0.1178344E-04 Eh
   gradient norm :     0.0014121 Eh/α   predicted    -0.8484818E-05 ( -27.99%)
   displ. norm   :     0.0219955 α      lambda       -0.1133124E-04
   maximum displ.:     0.0102285 α      in ANC's #37, #16, #17, ...

........................................................................
.............................. CYCLE   12 ..............................
........................................................................
   1    -83.3475660 -0.833476E+02  0.102E-02    1.41       0.0  T
   2    -83.3475659  0.562501E-07  0.644E-03    1.41       2.0  T
   3    -83.3475624  0.356694E-05  0.749E-03    1.41       1.7  T
   4    -83.3475659 -0.358158E-05  0.151E-03    1.41       8.6  T
   5    -83.3475661 -0.147185E-06  0.274E-04    1.41      47.0  T
   6    -83.3475661 -0.322166E-08  0.130E-04    1.41      99.1  T
     SCC iter.                  ...        0 min,  0.016 sec
     gradient                   ...        0 min,  0.028 sec
 * total energy  :   -82.2762338 Eh     change       -0.9594152E-05 Eh
   gradient norm :     0.0030576 Eh/α   predicted    -0.5700151E-05 ( -40.59%)
   displ. norm   :     0.0063354 α      lambda       -0.5141678E-05
   maximum displ.:     0.0020985 α      in ANC's #16, #19, #72, ...

........................................................................
.............................. CYCLE   13 ..............................
........................................................................
   1    -83.3474723 -0.833475E+02  0.328E-03    1.41       0.0  T
   2    -83.3474723 -0.386879E-08  0.195E-03    1.41       6.6  T
   3    -83.3474723  0.546476E-08  0.327E-04    1.41      39.5  T
   4    -83.3474723 -0.545040E-08  0.131E-04    1.41      98.4  T
     SCC iter.                  ...        0 min,  0.011 sec
     gradient                   ...        0 min,  0.027 sec
 * total energy  :   -82.2762382 Eh     change       -0.4337127E-05 Eh
   gradient norm :     0.0021419 Eh/α   predicted    -0.2591834E-05 ( -40.24%)
   displ. norm   :     0.0174446 α      lambda       -0.1061530E-04
   maximum displ.:     0.0070863 α      in ANC's #16, #19, #2, ...

........................................................................
.............................. CYCLE   14 ..............................
........................................................................
   1    -83.3473749 -0.833474E+02  0.750E-03    1.41       0.0  T
   2    -83.3473749 -0.145322E-07  0.451E-03    1.41       2.9  T
   3    -83.3473744  0.536777E-06  0.277E-03    1.41       4.7  T
   4    -83.3473749 -0.530518E-06  0.635E-04    1.41      20.3  T
   5    -83.3473749 -0.222777E-07  0.140E-04    1.41      92.0  T
     SCC iter.                  ...        0 min,  0.014 sec
     gradient                   ...        0 min,  0.028 sec
 * total energy  :   -82.2762448 Eh     change       -0.6651802E-05 Eh
   gradient norm :     0.0012085 Eh/α   predicted    -0.5325680E-05 ( -19.94%)
   displ. norm   :     0.0163734 α      lambda       -0.3989798E-05
   maximum displ.:     0.0078092 α      in ANC's #16, #19, #7, ...

........................................................................
.............................. CYCLE   15 ..............................
........................................................................
   1    -83.3474442 -0.833474E+02  0.565E-03    1.41       0.0  T
   2    -83.3474442 -0.797137E-08  0.343E-03    1.41       3.8  T
   3    -83.3474439  0.305220E-06  0.214E-03    1.41       6.0  T
   4    -83.3474442 -0.287760E-06  0.666E-04    1.41      19.4  T
   5    -83.3474442 -0.280429E-07  0.166E-04    1.41      77.9  T
     SCC iter.                  ...        0 min,  0.014 sec
     gradient                   ...        0 min,  0.028 sec
 * total energy  :   -82.2762495 Eh     change       -0.4639225E-05 Eh
   gradient norm :     0.0019025 Eh/α   predicted    -0.2004702E-05 ( -56.79%)
   displ. norm   :     0.0338826 α      lambda       -0.8934066E-05
   maximum displ.:     0.0167479 α      in ANC's #16, #19, #7, ...

........................................................................
.............................. CYCLE   16 ..............................
........................................................................
   1    -83.3477252 -0.833477E+02  0.110E-02    1.41       0.0  T
   2    -83.3477252  0.365175E-07  0.678E-03    1.41       1.9  T
   3    -83.3477219  0.326062E-05  0.707E-03    1.41       1.8  T
   4    -83.3477252 -0.331123E-05  0.872E-04    1.41      14.8  T
   5    -83.3477253 -0.503799E-07  0.287E-04    1.41      44.9  T
   6    -83.3477253 -0.360036E-08  0.118E-04    1.41     109.1  T
     SCC iter.                  ...        0 min,  0.016 sec
     gradient                   ...        0 min,  0.028 sec
 * total energy  :   -82.2762592 Eh     change       -0.9777431E-05 Eh
   gradient norm :     0.0016532 Eh/α   predicted    -0.4479222E-05 ( -54.19%)
   displ. norm   :     0.0373166 α      lambda       -0.7759476E-05
   maximum displ.:     0.0186000 α      in ANC's #16, #19, #7, ...

........................................................................
.............................. CYCLE   17 ..............................
........................................................................
   1    -83.3478702 -0.833479E+02  0.118E-02    1.41       0.0  T
   2    -83.3478701  0.494648E-07  0.723E-03    1.41       1.8  T
   3    -83.3478665  0.362687E-05  0.738E-03    1.41       1.7  T
   4    -83.3478702 -0.371759E-05  0.375E-04    1.41      34.4  T
   5    -83.3478702 -0.439699E-08  0.226E-04    1.41      57.1  T
   6    -83.3478702 -0.180694E-08  0.104E-04    1.41     123.6  T
     SCC iter.                  ...        0 min,  0.016 sec
     gradient                   ...        0 min,  0.028 sec
 * total energy  :   -82.2762675 Eh     change       -0.8250010E-05 Eh
   gradient norm :     0.0012193 Eh/α   predicted    -0.3890735E-05 ( -52.84%)
   displ. norm   :     0.0309562 α      lambda       -0.5678507E-05
   maximum displ.:     0.0151431 α      in ANC's #16, #19, #7, ...

........................................................................
.............................. CYCLE   18 ..............................
........................................................................
   1    -83.3478482 -0.833478E+02  0.953E-03    1.42       0.0  T
   2    -83.3478482  0.391400E-07  0.584E-03    1.42       2.2  T
   3    -83.3478455  0.261106E-05  0.624E-03    1.41       2.1  T
   4    -83.3478482 -0.267631E-05  0.411E-04    1.42      31.4  T
   5    -83.3478482 -0.774727E-08  0.197E-04    1.42      65.6  T
   6    -83.3478482 -0.103576E-08  0.842E-05    1.42     153.2  T
     SCC iter.                  ...        0 min,  0.016 sec
     gradient                   ...        0 min,  0.027 sec
 * total energy  :   -82.2762736 Eh     change       -0.6104702E-05 Eh
   gradient norm :     0.0009426 Eh/α   predicted    -0.2845550E-05 ( -53.39%)
   displ. norm   :     0.0252872 α      lambda       -0.4558378E-05
   maximum displ.:     0.0115266 α      in ANC's #16, #19, #7, ...

........................................................................
.............................. CYCLE   19 ..............................
........................................................................
   1    -83.3477081 -0.833477E+02  0.777E-03    1.42       0.0  T
   2    -83.3477081  0.352602E-07  0.477E-03    1.42       2.7  T
   3    -83.3477060  0.208119E-05  0.559E-03    1.42       2.3  T
   4    -83.3477081 -0.213109E-05  0.608E-04    1.42      21.2  T
   5    -83.3477082 -0.210518E-07  0.165E-04    1.42      78.4  T
   6    -83.3477082 -0.530434E-09  0.791E-05    1.42     163.2  T
     SCC iter.                  ...        0 min,  0.016 sec
     gradient                   ...        0 min,  0.028 sec
 * total energy  :   -82.2762785 Eh     change       -0.4866154E-05 Eh
   gradient norm :     0.0009116 Eh/α   predicted    -0.2288610E-05 ( -52.97%)
   displ. norm   :     0.0205466 α      lambda       -0.3631377E-05
   maximum displ.:     0.0078112 α      in ANC's #16, #7, #19, ...

   *** GEOMETRY OPTIMIZATION CONVERGED AFTER 19 ITERATIONS ***

------------------------------------------------------------------------
 total energy gain   :        -0.0885035 Eh      -55.5368 kcal/mol
 total RMSD          :         0.0463052 a0        0.0245 Å
 total power (kW/mol):       -12.2297821 (step) -226.8761 (real)
------------------------------------------------------------------------

 ANCopt (total)                0 d,  0 h,  0 min,  1.024 sec
 optimizer setup                ...        0 min,  0.000 sec (  0.008%)
 model hessian                  ...        0 min,  0.031 sec (  3.075%)
 ANC generation                 ...        0 min,  0.003 sec (  0.264%)
 coordinate transformation      ...        0 min,  0.000 sec (  0.027%)
 single point calculation       ...        0 min,  0.983 sec ( 95.986%)
 optimization log               ...        0 min,  0.004 sec (  0.379%)
 hessian update                 ...        0 min,  0.000 sec (  0.041%)
 rational function              ...        0 min,  0.001 sec (  0.143%)

================
 final structure:
================
60
 xtb: 6.5.0 (homebrew)
C            3.28765593912487      -38.05767246187132       16.13774738192453
C            3.60484109428659      -38.24769748279823       17.61940535282068
O            3.24609050330148      -37.07243399379563       18.34262197403798
C            2.74342220997114      -39.39005084245836       18.17444944439428
C            5.12993920073899      -38.42017512938676       17.95602410651992
C            5.57886074310908      -39.85974132202941       18.19758900951431
C            6.04569701796838      -37.77693427087865       16.90640232607068
O            5.28190440737152      -37.67081608873534       19.15974333663723
B            4.20005270686078      -36.83939792609725       19.30120108715959
C            4.04351069356185      -35.82549699695234       20.45645344352292
C            5.07436434365225      -35.60180985812122       21.33500172721170
C            5.11117325302421      -34.78906067524085       22.46268044113479
H            6.06652329598403      -34.62461100149559       22.93865845960277
C            3.95690513070211      -34.00732523374248       23.05036284291560
H            4.16950285454100      -33.74240961697862       24.08689383041397
C            2.60472278487624      -34.65249817760094       22.98820421211326
B            1.82570888273233      -34.85067095977666       24.32363987233131
O            2.29153358046827      -34.46618670603889       25.55142824011860
C            1.40037136953009      -34.95482518031925       26.55340160914573
C            1.20378298321988      -33.88673346079325       27.62686152738201
C            2.06900342178813      -36.18364357229119       27.18283892802490
C            0.10785846977904      -35.31607725686748       25.73426479358402
C           -0.93052736399801      -34.18701475053444       25.72646124939374
C           -0.57318526904822      -36.61990388081725       26.14360505816954
O            0.59469891461723      -35.43776526825643       24.39912574667878
C            2.08314815085964      -35.07635201220849       21.83578053452419
C            2.74993548960332      -34.98335547330798       20.50004851952241
H            2.08276077812798      -35.40090849751081       19.74342205066814
C            3.07705972570556      -33.55341623854961       20.08460678963436
C            3.80038781859926      -32.67764248894738       20.82671161031698
C            4.23633132719911      -32.83704224118038       22.14540285164960
H            4.93584950595329      -32.11088390338574       22.53281941978682
H            2.21049916350717      -37.97372117861936       16.01568981027345
H            3.64004223830889      -38.91212287336086       15.56602746731624
H            3.74145876213434      -37.15096669465355       15.75100667401983
H            1.69609535450769      -39.12069633355794       18.05797838496636
H            2.93938046649669      -39.52367964021886       19.23547757230698
H            2.93075723821619      -40.31926584030904       17.64455932155464
H            5.38486289937928      -40.46948779260953       17.31926767098146
H            5.07178013135268      -40.28732872841488       19.05640671273967
H            6.64684267218141      -39.86477274582107       18.40115061537876
H            6.01692047614156      -38.32714285963614       15.97059418170755
H            7.06420613358647      -37.77990753748647       17.28797269021586
H            5.75413866971847      -36.74355444195071       16.73568302412893
H            5.98655236539352      -36.15387829619183       21.13263072203407
H            2.14760673824159      -33.72559768826479       28.14192229754404
H            0.46071663147696      -34.21359449470901       28.34922970278514
H            0.89388637752612      -32.94313290343730       27.18964115725682
H            3.03315219623299      -35.88411794832256       27.58740215551960
H            2.24453037521283      -36.94379042720816       26.42573791847778
H            1.46168757475882      -36.59415892480989       27.98390228654651
H           -1.38120397469405      -34.05919381577652       26.70598657905041
H           -1.70726121164761      -34.44033386500433       25.00863571967667
H           -0.47048703130785      -33.25548325885557       25.40644052139257
H           -0.87625633086631      -36.57699432901637       27.18611668006457
H            0.08438662388604      -37.46932429995730       25.99015648360067
H           -1.45589923175474      -36.76238814146605       25.52526683099141
H            1.10953487995679      -35.54661316154856       21.86357165498110
H            2.86183529950353      -33.30964136503308       19.05547656445621
H            4.07411054833934      -31.73555744479244       20.36203082310760

 Bond Distances (Angstroems)
 ---------------------------
C1-C2=1.5271         C1-H33=1.0873        C1-H34=1.0868        C1-H35=1.0852        C2-C1=1.5271         C2-O3=1.4258         
C2-C4=1.5346         C2-C5=1.5713         O3-C2=1.4258         O3-B9=1.3723         C4-C2=1.5346         C4-H36=1.0877        
C4-H37=1.0872        C4-H38=1.0860        C5-C2=1.5713         C5-C6=1.5272         C5-C7=1.5343         C5-O8=1.4260         
C6-C5=1.5272         C6-H39=1.0867        C6-H40=1.0851        C6-H41=1.0872        C7-C5=1.5343         C7-H42=1.0860        
C7-H43=1.0876        C7-H44=1.0872        O8-C5=1.4260         O8-B9=1.3717         B9-O3=1.3723         B9-O8=1.3717         
B9-C10=1.5450        C10-B9=1.5450        C10-C11=1.3728       C10-C27=1.5442       C11-C10=1.3728       C11-C12=1.3905       
C11-H45=1.0853       C12-C11=1.3905       C12-H13=1.0800       C12-C14=1.5129       H13-C12=1.0800       C14-C12=1.5129       
C14-H15=1.0908       C14-C16=1.4995       C14-C31=1.5055       H15-C14=1.0908       C16-C14=1.4995       C16-B17=1.5587       
C16-C26=1.3341       B17-C16=1.5587       B17-O18=1.3683       B17-O25=1.3659       O18-B17=1.3683       O18-C19=1.4272       
C19-O18=1.4272       C19-C20=1.5270       C19-C21=1.5340       C19-C22=1.5723       C20-C19=1.5270       C20-H46=1.0872       
C20-H47=1.0866       C20-H48=1.0852       C21-C19=1.5340       C21-H49=1.0876       C21-H50=1.0871       C21-H51=1.0858       
C22-C19=1.5723       C22-C23=1.5340       C22-C24=1.5269       C22-O25=1.4263       C23-C22=1.5340       C23-H52=1.0858       
C23-H53=1.0875       C23-H54=1.0871       C24-C22=1.5269       C24-H55=1.0865       C24-H56=1.0851       C24-H57=1.0871       
O25-B17=1.3659       O25-C22=1.4263       C26-C16=1.3341       C26-C27=1.4958       C26-H58=1.0816       C27-C10=1.5442       
C27-C26=1.4958       C27-H28=1.0918       C27-C29=1.5246       H28-C27=1.0918       C29-C27=1.5246       C29-C30=1.3568       
C29-H59=1.0793       C30-C29=1.3568       C30-C31=1.3980       C30-H60=1.0855       C31-C14=1.5055       C31-C30=1.3980       
C31-H32=1.0801       H32-C31=1.0801       H33-C1=1.0873        H34-C1=1.0868        H35-C1=1.0852        H36-C4=1.0877        
H37-C4=1.0872        H38-C4=1.0860        H39-C6=1.0867        H40-C6=1.0851        H41-C6=1.0872        H42-C7=1.0860        
H43-C7=1.0876        H44-C7=1.0872        H45-C11=1.0853       H46-C20=1.0872       H47-C20=1.0866       H48-C20=1.0852       
H49-C21=1.0876       H50-C21=1.0871       H51-C21=1.0858       H52-C23=1.0858       H53-C23=1.0875       H54-C23=1.0871       
H55-C24=1.0865       H56-C24=1.0851       H57-C24=1.0871       H58-C26=1.0816       H59-C29=1.0793       H60-C30=1.0855       
 C  H  Rav=1.0860 sigma=0.0026  Rmin=1.0793  Rmax=1.0918    32
 C  B  Rav=1.5519 sigma=0.0068  Rmin=1.5450  Rmax=1.5587     2
 C  C  Rav=1.4916 sigma=0.0710  Rmin=1.3341  Rmax=1.5723    21
 O  B  Rav=1.3696 sigma=0.0026  Rmin=1.3659  Rmax=1.3723     4
 O  C  Rav=1.4263 sigma=0.0005  Rmin=1.4258  Rmax=1.4272     4

 selected bond angles (degree)
 --------------------
H33-C1-C2=108.92               H34-C1-C2=110.20               H34-C1-H33=108.84              H35-C1-C2=111.28               
H35-C1-H33=108.04              H35-C1-H34=109.50              O3-C2-C1=109.71                C4-C2-C1=109.08                
C4-C2-O3=106.79                C5-C2-C1=115.03                C5-C2-O3=103.06                C5-C2-C4=112.68                
B9-O3-C2=108.62                H36-C4-C2=108.51               H37-C4-C2=110.08               H37-C4-H36=107.97              
H38-C4-C2=111.32               H38-C4-H36=109.01              H38-C4-H37=109.87              C6-C5-C2=115.00                
C7-C5-C2=112.75                C7-C5-C6=109.14                O8-C5-C2=103.10                O8-C5-C6=109.30                
O8-C5-C7=107.07                H39-C6-C5=110.40               H40-C6-C5=111.05               H40-C6-H39=109.58              
H41-C6-C5=108.83               H41-C6-H39=108.91              H41-C6-H40=108.00              H42-C7-C5=111.18               
H43-C7-C5=108.53               H43-C7-H42=109.01              H44-C7-C5=110.23               H44-C7-H42=109.83              
H44-C7-H43=107.99              B9-O8-C5=108.75                O8-B9-O3=111.92                C10-B9-O3=124.28               
C10-B9-O8=123.69               C11-C10-B9=120.62              C27-C10-B9=117.64              C27-C10-C11=121.48             

 selected dihedral angles (degree)
 ---------------------------------
O3-C2-C1-H33=294.22           O3-C2-C1-H34=174.90           O3-C2-C1-H35= 53.23           C4-C2-C1-H33= 50.88           
C4-C2-C1-H34=291.55           C4-C2-C1-H35=169.89           C5-C2-C1-H33=178.61           C5-C2-C1-H34= 59.28           
C5-C2-C1-H35=297.62           B9-O3-C2-C1=219.00            B9-O3-C2-C4=100.91            B9-O3-C2-C5=341.99            
H36-C4-C2-C1=299.30           H36-C4-C2-O3= 57.80           H36-C4-C2-C5=170.26           H37-C4-C2-C1=181.34           
H37-C4-C2-O3=299.85           H37-C4-C2-C5= 52.31           H38-C4-C2-C1= 59.26           H38-C4-C2-O3=177.76           
H38-C4-C2-C5=290.22           C6-C5-C2-C1=259.26            C6-C5-C2-O3=139.89            C6-C5-C2-C4= 25.16            
C7-C5-C2-C1= 25.28            C7-C5-C2-O3=265.90            C7-C5-C2-C4=151.17            O8-C5-C2-C1=140.39            
O8-C5-C2-O3= 21.01            O8-C5-C2-C4=266.28            H39-C6-C5-C2= 59.42           H39-C6-C5-C7=291.57           
H39-C6-C5-O8=174.77           H40-C6-C5-C2=297.66           H40-C6-C5-C7=169.81           H40-C6-C5-O8= 53.01           
H41-C6-C5-C2=178.90           H41-C6-C5-C7= 51.05           H41-C6-C5-O8=294.25           H42-C7-C5-C2=290.02           
H42-C7-C5-C6= 59.13           H42-C7-C5-O8=177.33           H43-C7-C5-C2=170.14           H43-C7-C5-C6=299.24           
H43-C7-C5-O8= 57.44           H44-C7-C5-C2= 52.06           H44-C7-C5-C6=181.17           H44-C7-C5-O8=299.37           
B9-O8-C5-C2=343.17            B9-O8-C5-C6=220.40            B9-O8-C5-C7=102.30            O8-B9-O3-C2=  8.47            
C10-B9-O3-C2=192.04           O3-B9-O8-C5=  6.42            C10-B9-O8-C5=182.88           C11-C10-B9-O3=183.40          
C11-C10-B9-O8=  7.38          C27-C10-B9-O3=357.57          C27-C10-B9-O8=181.55          
           -------------------------------------------------
          |                Final Singlepoint                |
           -------------------------------------------------

          ...................................................
          :                      SETUP                      :
          :.................................................:
          :  # basis functions                 144          :
          :  # atomic orbitals                 144          :
          :  # shells                           88          :
          :  # electrons                       150          :
          :  max. iterations                   250          :
          :  Hamiltonian                  GFN2-xTB          :
          :  restarted?                      false          :
          :  GBSA solvation                  false          :
          :  PC potential                    false          :
          :  electronic temp.          300.0000000     K    :
          :  accuracy                    1.0000000          :
          :  -> integral cutoff          0.2500000E+02      :
          :  -> integral neglect         0.1000000E-07      :
          :  -> SCF convergence          0.1000000E-05 Eh   :
          :  -> wf. convergence          0.1000000E-03 e    :
          :  Broyden damping             0.4000000          :
          ...................................................

 iter      E             dE          RMSdq      gap      omega  full diag
   1    -83.3477082 -0.833477E+02  0.375E-05    1.42       0.0  T
   2    -83.3477082  0.606661E-10  0.419E-05    1.42     308.1  T
   3    -83.3477082 -0.118817E-09  0.189E-05    1.42     682.6  T

   *** convergence criteria satisfied after 3 iterations ***

         #    Occupation            Energy/Eh            Energy/eV
      -------------------------------------------------------------
         1        2.0000           -0.6869619             -18.6932
       ...           ...                  ...                  ...
        69        2.0000           -0.3998789             -10.8813
        70        2.0000           -0.3973618             -10.8128
        71        2.0000           -0.3965280             -10.7901
        72        2.0000           -0.3937226             -10.7137
        73        2.0000           -0.3918225             -10.6620
        74        2.0000           -0.3653135              -9.9407
        75        2.0000           -0.3259348              -8.8691 (HOMO)
        76                         -0.2738533              -7.4519 (LUMO)
        77                         -0.2177218              -5.9245
        78                         -0.1866368              -5.0786
        79                         -0.1456546              -3.9635
        80                         -0.0960421              -2.6134
       ...                                ...                  ...
       144                          0.6747864              18.3619
      -------------------------------------------------------------
                  HL-Gap            0.0520816 Eh            1.4172 eV
             Fermi-level           -0.2998941 Eh           -8.1605 eV

 SCC (total)                   0 d,  0 h,  0 min,  0.043 sec
 SCC setup                      ...        0 min,  0.000 sec (  0.588%)
 Dispersion                     ...        0 min,  0.000 sec (  0.899%)
 classical contributions        ...        0 min,  0.000 sec (  0.402%)
 integral evaluation            ...        0 min,  0.006 sec ( 13.958%)
 iterations                     ...        0 min,  0.008 sec ( 19.608%)
 molecular gradient             ...        0 min,  0.027 sec ( 63.757%)
 printout                       ...        0 min,  0.000 sec (  0.776%)

         :::::::::::::::::::::::::::::::::::::::::::::::::::::
         ::                     SUMMARY                     ::
         :::::::::::::::::::::::::::::::::::::::::::::::::::::
         :: total energy             -82.276278452442 Eh    ::
         :: gradient norm              0.000911659495 Eh/a0 ::
         :: HOMO-LUMO gap              1.417211675584 eV    ::
         ::.................................................::
         :: SCC energy               -83.347708164741 Eh    ::
         :: -> isotropic ES            0.147583112132 Eh    ::
         :: -> anisotropic ES          0.012700799025 Eh    ::
         :: -> anisotropic XC          0.027603472813 Eh    ::
         :: -> dispersion             -0.062074508291 Eh    ::
         :: repulsion energy           1.070439369283 Eh    ::
         :: add. restraining           0.000193609213 Eh    ::
         :: total charge              -0.000000000000 e     ::
         :::::::::::::::::::::::::::::::::::::::::::::::::::::

           -------------------------------------------------
          |                Property Printout                |
           -------------------------------------------------

    * Orbital Energies and Occupations

         #    Occupation            Energy/Eh            Energy/eV
      -------------------------------------------------------------
         1        2.0000           -0.6869619             -18.6932
       ...           ...                  ...                  ...
        63        2.0000           -0.4363379             -11.8734
        64        2.0000           -0.4284695             -11.6592
        65        2.0000           -0.4229622             -11.5094
        66        2.0000           -0.4193945             -11.4123
        67        2.0000           -0.4181620             -11.3788
        68        2.0000           -0.4122073             -11.2167
        69        2.0000           -0.3998789             -10.8813
        70        2.0000           -0.3973618             -10.8128
        71        2.0000           -0.3965280             -10.7901
        72        2.0000           -0.3937226             -10.7137
        73        2.0000           -0.3918225             -10.6620
        74        2.0000           -0.3653135              -9.9407
        75        2.0000           -0.3259348              -8.8691 (HOMO)
        76                         -0.2738533              -7.4519 (LUMO)
        77                         -0.2177218              -5.9245
        78                         -0.1866368              -5.0786
        79                         -0.1456546              -3.9635
        80                         -0.0960421              -2.6134
        81                         -0.0843166              -2.2944
        82                          0.0100553               0.2736
        83                          0.0154349               0.4200
        84                          0.0292318               0.7954
        85                          0.0318656               0.8671
        86                          0.0575119               1.5650
       ...                                ...                  ...
       144                          0.6747864              18.3619
      -------------------------------------------------------------
                  HL-Gap            0.0520816 Eh            1.4172 eV
             Fermi-level           -0.2998941 Eh           -8.1605 eV

     #   Z          covCN         q      C6AA      α(0)
     1   6 C        3.755    -0.116    22.786     6.806
     2   6 C        3.860     0.130    18.444     6.108
     3   8 O        1.638    -0.376    20.392     6.096
     4   6 C        3.755    -0.116    22.768     6.804
     5   6 C        3.858     0.130    18.443     6.108
     6   6 C        3.755    -0.117    22.792     6.807
     7   6 C        3.755    -0.115    22.760     6.803
     8   8 O        1.638    -0.376    20.402     6.097
     9   5 B        2.659     0.429    15.596     6.649
    10   6 C        2.868    -0.088    30.207     9.009
    11   6 C        2.892    -0.032    28.787     8.797
    12   6 C        3.078    -0.026    28.556     8.761
    13   1 H        0.926     0.031     2.568     2.506
    14   6 C        3.862    -0.007    20.671     6.466
    15   1 H        0.924     0.049     2.327     2.385
    16   6 C        2.864    -0.085    30.132     8.998
    17   5 B        2.663     0.430    15.567     6.640
    18   8 O        1.638    -0.372    20.322     6.085
    19   6 C        3.860     0.129    18.458     6.110
    20   6 C        3.755    -0.117    22.799     6.808
    21   6 C        3.755    -0.116    22.780     6.805
    22   6 C        3.861     0.129    18.457     6.110
    23   6 C        3.755    -0.117    22.787     6.806
    24   6 C        3.755    -0.118    22.807     6.809
    25   8 O        1.638    -0.370    20.283     6.079
    26   6 C        2.900    -0.024    28.598     8.768
    27   6 C        3.857    -0.018    20.859     6.495
    28   1 H        0.924     0.048     2.348     2.396
    29   6 C        2.894    -0.033    28.833     8.804
    30   6 C        2.888    -0.034    28.848     8.806
    31   6 C        3.080    -0.022    28.458     8.746
    32   1 H        0.926     0.032     2.560     2.502
    33   1 H        0.925     0.053     2.277     2.360
    34   1 H        0.925     0.038     2.469     2.457
    35   1 H        0.925     0.051     2.307     2.375
    36   1 H        0.925     0.051     2.303     2.373
    37   1 H        0.925     0.043     2.408     2.427
    38   1 H        0.925     0.041     2.433     2.439
    39   1 H        0.925     0.039     2.466     2.456
    40   1 H        0.925     0.052     2.300     2.371
    41   1 H        0.925     0.053     2.280     2.361
    42   1 H        0.925     0.042     2.428     2.437
    43   1 H        0.925     0.051     2.311     2.377
    44   1 H        0.925     0.043     2.414     2.430
    45   1 H        0.925     0.037     2.485     2.465
    46   1 H        0.925     0.054     2.271     2.357
    47   1 H        0.925     0.040     2.452     2.449
    48   1 H        0.925     0.052     2.296     2.370
    49   1 H        0.925     0.052     2.298     2.370
    50   1 H        0.925     0.044     2.398     2.422
    51   1 H        0.925     0.042     2.417     2.431
    52   1 H        0.925     0.043     2.415     2.430
    53   1 H        0.925     0.053     2.287     2.365
    54   1 H        0.925     0.044     2.400     2.423
    55   1 H        0.925     0.040     2.452     2.449
    56   1 H        0.925     0.052     2.294     2.369
    57   1 H        0.925     0.055     2.262     2.352
    58   1 H        0.925     0.038     2.477     2.461
    59   1 H        0.926     0.030     2.587     2.515
    60   1 H        0.925     0.027     2.632     2.537

 Mol. C6AA /au·bohr⁶  :      33343.095971
 Mol. C8AA /au·bohr⁸  :     773636.169098
 Mol. α(0) /au        :        277.599227


Wiberg/Mayer (AO) data.
largest (>0.10) Wiberg bond orders for each atom

 ---------------------------------------------------------------------------
     #   Z sym  total        # sym  WBO       # sym  WBO       # sym  WBO
 ---------------------------------------------------------------------------
     1   6 C    3.994 --     2 C    0.997    34 H    0.985    33 H    0.983
                            35 H    0.983
     2   6 C    3.944 --     1 C    0.997     4 C    0.990     3 O    0.956
                             5 C    0.937
     3   8 O    2.219 --     9 B    1.112     2 C    0.956
     4   6 C    3.994 --     2 C    0.990    38 H    0.985    37 H    0.984
                            36 H    0.983
     5   6 C    3.944 --     6 C    0.996     7 C    0.990     8 O    0.955
                             2 C    0.937
     6   6 C    3.994 --     5 C    0.996    39 H    0.985    41 H    0.983
                            40 H    0.982
     7   6 C    3.995 --     5 C    0.990    42 H    0.985    44 H    0.984
                            43 H    0.983
     8   8 O    2.219 --     9 B    1.114     5 C    0.955
     9   5 B    3.385 --     8 O    1.114     3 O    1.112    10 C    1.030
    10   6 C    3.960 --    11 C    1.540     9 B    1.030    27 C    0.950
                            31 C    0.151    29 C    0.147
    11   6 C    3.991 --    10 C    1.540    12 C    1.386    45 H    0.958
    12   6 C    3.942 --    11 C    1.386    13 H    0.973    14 C    0.953
                            31 C    0.401    29 C    0.146
    13   1 H    0.999 --    12 C    0.973
    14   6 C    3.988 --    16 C    1.006    31 C    0.972    15 H    0.967
                            12 C    0.953
    15   1 H    0.997 --    14 C    0.967
    16   6 C    3.977 --    26 C    1.845    14 C    1.006    17 B    1.001
    17   5 B    3.377 --    25 O    1.132    18 O    1.127    16 C    1.001
    18   8 O    2.233 --    17 B    1.127    19 C    0.953
    19   6 C    3.943 --    20 C    0.997    21 C    0.991    18 O    0.953
                            22 C    0.936
    20   6 C    3.994 --    19 C    0.997    47 H    0.984    46 H    0.983
                            48 H    0.982
    21   6 C    3.994 --    19 C    0.991    51 H    0.984    50 H    0.984
                            49 H    0.983
    22   6 C    3.943 --    24 C    0.996    23 C    0.990    25 O    0.953
                            19 C    0.936
    23   6 C    3.995 --    22 C    0.990    52 H    0.985    54 H    0.984
                            53 H    0.983
    24   6 C    3.994 --    22 C    0.996    55 H    0.985    57 H    0.982
                            56 H    0.982
    25   8 O    2.237 --    17 B    1.132    22 C    0.953
    26   6 C    3.986 --    16 C    1.845    27 C    1.007    58 H    0.966
    27   6 C    3.993 --    26 C    1.007    29 C    0.982    28 H    0.971
                            10 C    0.950
    28   1 H    0.998 --    27 C    0.971
    29   6 C    3.973 --    30 C    1.621    27 C    0.982    59 H    0.972
                            10 C    0.147    12 C    0.146
    30   6 C    3.992 --    29 C    1.621    31 C    1.339    60 H    0.961
    31   6 C    3.925 --    30 C    1.339    32 H    0.974    14 C    0.972
                            12 C    0.401    10 C    0.151
    32   1 H    0.999 --    31 C    0.974
    33   1 H    0.997 --     1 C    0.983
    34   1 H    0.998 --     1 C    0.985
    35   1 H    0.997 --     1 C    0.983
    36   1 H    0.997 --     4 C    0.983
    37   1 H    0.998 --     4 C    0.984
    38   1 H    0.998 --     4 C    0.985
    39   1 H    0.998 --     6 C    0.985
    40   1 H    0.997 --     6 C    0.982
    41   1 H    0.997 --     6 C    0.983
    42   1 H    0.998 --     7 C    0.985
    43   1 H    0.997 --     7 C    0.983
    44   1 H    0.998 --     7 C    0.984
    45   1 H    0.998 --    11 C    0.958
    46   1 H    0.997 --    20 C    0.983
    47   1 H    0.998 --    20 C    0.984
    48   1 H    0.997 --    20 C    0.982
    49   1 H    0.997 --    21 C    0.983
    50   1 H    0.998 --    21 C    0.984
    51   1 H    0.998 --    21 C    0.984
    52   1 H    0.998 --    23 C    0.985
    53   1 H    0.997 --    23 C    0.983
    54   1 H    0.998 --    23 C    0.984
    55   1 H    0.998 --    24 C    0.985
    56   1 H    0.997 --    24 C    0.982
    57   1 H    0.997 --    24 C    0.982
    58   1 H    0.998 --    26 C    0.966
    59   1 H    0.999 --    29 C    0.972
    60   1 H    0.999 --    30 C    0.961
 ---------------------------------------------------------------------------

Topologies differ in total number of bonds
Writing topology from bond orders to xtbtopo.mol

molecular dipole:
                 x           y           z       tot (Debye)
 q only:       -0.281      -0.383       0.301
   full:       -0.116      -0.458       0.199       1.304
molecular quadrupole (traceless):
                xx          xy          yy          xz          yz          zz
 q only:      -49.737      24.221      36.539     -25.341     -46.183      13.198
  q+dip:      -48.879       9.187      47.778     -15.697     -38.892       1.101
   full:      -49.408       8.091      49.366     -17.418     -40.080       0.042

           -------------------------------------------------
          |                Geometry Summary                 |
           -------------------------------------------------

      molecular mass/u    :      382.1099696
   center of mass at/Å    :        2.9699970     -35.8844541      21.8196982
  moments of inertia/u·Å² :        0.1431717E+04   0.6335006E+04   0.6795690E+04
rotational constants/cm⁻¹ :        0.1177441E-01   0.2661029E-02   0.2480636E-02

 * 55 selected distances

     #   Z          #   Z                                           value/Å
     1   6 C        2   6 C                                       1.5270975
     2   6 C        3   8 O                                       1.4258292
     2   6 C        4   6 C                                       1.5346296
     5   6 C        6   6 C                                       1.5271658
     5   6 C        7   6 C                                       1.5343003
     5   6 C        8   8 O                                       1.4260339
     3   8 O        9   5 B                                       1.3723061
     8   8 O        9   5 B                                       1.3717397
     9   5 B       10   6 C                                       1.5450272
    10   6 C       11   6 C                                       1.3727864
    11   6 C       12   6 C                                       1.3905308
    12   6 C       13   1 H                                       1.0799503
    14   6 C       15   1 H                                       1.0907680
    16   6 C       17   5 B                                       1.5586930 (max)
    17   5 B       18   8 O                                       1.3683148
    18   8 O       19   6 C                                       1.4271961
    19   6 C       20   6 C                                       1.5270179
    19   6 C       21   6 C                                       1.5340323
    22   6 C       23   6 C                                       1.5339780
    22   6 C       24   6 C                                       1.5268740
    17   5 B       25   8 O                                       1.3659296
    22   6 C       25   8 O                                       1.4263303
    16   6 C       26   6 C                                       1.3340813
    27   6 C       28   1 H                                       1.0917676
    29   6 C       30   6 C                                       1.3567988
    30   6 C       31   6 C                                       1.3979993
    31   6 C       32   1 H                                       1.0801497
     1   6 C       33   1 H                                       1.0872961
     1   6 C       34   1 H                                       1.0867960
     1   6 C       35   1 H                                       1.0851824
     4   6 C       36   1 H                                       1.0876631
     4   6 C       37   1 H                                       1.0872153
     4   6 C       38   1 H                                       1.0859644
     6   6 C       39   1 H                                       1.0866805
     6   6 C       40   1 H                                       1.0851405
     6   6 C       41   1 H                                       1.0872204
     7   6 C       42   1 H                                       1.0859534
     7   6 C       43   1 H                                       1.0876423
     7   6 C       44   1 H                                       1.0872099
    11   6 C       45   1 H                                       1.0852745
    20   6 C       46   1 H                                       1.0872239
    20   6 C       47   1 H                                       1.0866470
    20   6 C       48   1 H                                       1.0851635
    21   6 C       49   1 H                                       1.0876443
    21   6 C       50   1 H                                       1.0871224
    21   6 C       51   1 H                                       1.0858444
    23   6 C       52   1 H                                       1.0857798
    23   6 C       53   1 H                                       1.0875476
    23   6 C       54   1 H                                       1.0871069
    24   6 C       55   1 H                                       1.0865192
    24   6 C       56   1 H                                       1.0851095
    24   6 C       57   1 H                                       1.0871192
    26   6 C       58   1 H                                       1.0815918
    29   6 C       59   1 H                                       1.0792854 (min)
    30   6 C       60   1 H                                       1.0855307

 * 5 distinct bonds (by element types)

   Z      Z             #   av. dist./Å        max./Å        min./Å
   1 H    6 C          32     1.0860347     1.0917676     1.0792854
   5 B    6 C           2     1.5518601     1.5586930     1.5450272
   6 C    6 C          13     1.4690225     1.5346296     1.3340813
   5 B    8 O           4     1.3695726     1.3723061     1.3659296
   6 C    8 O           4     1.4263474     1.4271961     1.4258292


optimized geometry written to: xtbopt.xyz


           -------------------------------------------------
          | TOTAL ENERGY              -82.276278452442 Eh   |
          | GRADIENT NORM               0.000911659495 Eh/α |
          | HOMO-LUMO GAP               1.417211675584 eV   |
           -------------------------------------------------

------------------------------------------------------------------------
 * finished run on 2022/07/09 at 18:33:07.148     
------------------------------------------------------------------------
 total:
 * wall-time:     0 d,  0 h,  0 min,  1.152 sec
 *  cpu-time:     0 d,  0 h,  0 min,  1.150 sec
 * ratio c/w:     0.999 speedup
 SCF:
 * wall-time:     0 d,  0 h,  0 min,  0.071 sec
 *  cpu-time:     0 d,  0 h,  0 min,  0.071 sec
 * ratio c/w:     1.000 speedup
 ANC optimizer:
 * wall-time:     0 d,  0 h,  0 min,  1.069 sec
 *  cpu-time:     0 d,  0 h,  0 min,  1.067 sec
 * ratio c/w:     0.998 speedup

