      -----------------------------------------------------------      
     |                   =====================                   |     
     |                           x T B                           |     
     |                   =====================                   |     
     |                         S. Grimme                         |     
     |          Mulliken Center for Theoretical Chemistry        |     
     |                    University of Bonn                     |     
      -----------------------------------------------------------      

   * xtb version 6.5.0 (homebrew) compiled by 'nhattrup@GPGGRP-SHANNON.CHEME.CMU.EDU' on 

   xtb is free software: you can redistribute it and/or modify it under
   the terms of the GNU Lesser General Public License as published by
   the Free Software Foundation, either version 3 of the License, or
   (at your option) any later version.
   
   xtb is distributed in the hope that it will be useful,
   but WITHOUT ANY WARRANTY; without even the implied warranty of
   MERCHANTABILITY or FITNESS FOR A PARTICULAR PURPOSE.  See the
   GNU Lesser General Public License for more details.
   
   Cite this work as:
   * C. Bannwarth, E. Caldeweyher, S. Ehlert, A. Hansen, P. Pracht,
     J. Seibert, S. Spicher, S. Grimme, WIREs Comput. Mol. Sci., 2020, 11,
     e01493. DOI: 10.1002/wcms.1493
   
   for GFN2-xTB:
   * C. Bannwarth, S. Ehlert and S. Grimme., J. Chem. Theory Comput., 2019,
     15, 1652-1671. DOI: 10.1021/acs.jctc.8b01176
   for GFN1-xTB:
   * S. Grimme, C. Bannwarth, P. Shushkov, J. Chem. Theory Comput., 2017,
     13, 1989-2009. DOI: 10.1021/acs.jctc.7b00118
   for GFN0-xTB:
   * P. Pracht, E. Caldeweyher, S. Ehlert, S. Grimme, ChemRxiv, 2019, preprint.
     DOI: 10.26434/chemrxiv.8326202.v1
   for GFN-FF:
   * S. Spicher and S. Grimme, Angew. Chem. Int. Ed., 2020, 59, 15665-15673.
     DOI: 10.1002/anie.202004239
   
   for ALPB and GBSA implicit solvation:
   * S. Ehlert, M. Stahn, S. Spicher, S. Grimme, J. Chem. Theory Comput.,
     2021, 17, 4250-4261. DOI: 10.1021/acs.jctc.1c00471
   
   for DFT-D4:
   * E. Caldeweyher, C. Bannwarth and S. Grimme, J. Chem. Phys., 2017,
     147, 034112. DOI: 10.1063/1.4993215
   * E. Caldeweyher, S. Ehlert, A. Hansen, H. Neugebauer, S. Spicher,
     C. Bannwarth and S. Grimme, J. Chem. Phys., 2019, 150, 154122.
     DOI: 10.1063/1.5090222
   * E. Caldeweyher, J.-M. Mewes, S. Ehlert and S. Grimme, Phys. Chem. Chem. Phys.
     2020, 22, 8499-8512. DOI: 10.1039/D0CP00502A
   
   for sTDA-xTB:
   * S. Grimme and C. Bannwarth, J. Chem. Phys., 2016, 145, 054103.
     DOI: 10.1063/1.4959605
   
   in the mass-spec context:
   * V. Asgeirsson, C. Bauer and S. Grimme, Chem. Sci., 2017, 8, 4879.
     DOI: 10.1039/c7sc00601b
   * J. Koopman and S. Grimme, ACS Omega 2019, 4, 12, 15120-15133.
     DOI: 10.1021/acsomega.9b02011
   
   for metadynamics refer to:
   * S. Grimme, J. Chem. Theory Comput., 2019, 155, 2847-2862
     DOI: 10.1021/acs.jctc.9b00143
   
   for SPH calculations refer to:
   * S. Spicher and S. Grimme, J. Chem. Theory Comput., 2021, 17, 1701-1714
     DOI: 10.1021/acs.jctc.0c01306
   
   with help from (in alphabetical order)
   P. Atkinson, C. Bannwarth, F. Bohle, G. Brandenburg, E. Caldeweyher
   M. Checinski, S. Dohm, S. Ehlert, S. Ehrlich, I. Gerasimov, C. Hölzer
   A. Katbashev, J. Koopman, C. Lavigne, S. Lehtola, F. März, M. Müller,
   F. Musil, H. Neugebauer, J. Pisarek, C. Plett, P. Pracht, F. Pultar,
   J. Seibert, P. Shushkov, S. Spicher, M. Stahn, M. Steiner, T. Strunk,
   J. Stückrath, T. Rose, and J. Unsleber
   
 * started run on 2022/07/09 at 18:33:36.808     

           -------------------------------------------------
          |                Calculation Setup                |
           -------------------------------------------------

          program call               : /opt/homebrew/bin/xtb bvl_bpin2_scan_4-9_xtb.xyz --chrg 0 --uhf 0 --opt --input xcontrol_bvl_bpin2_scan_4-9_xtb
          coordinate file            : bvl_bpin2_scan_4-9_xtb.xyz
          omp threads                :                     1

   ID    Z sym.   atoms
    1    6 C      1, 2, 4-7, 10-12, 14, 16, 19-24, 26, 27, 29-31
    2    8 O      3, 8, 18, 25
    3    5 B      9, 17
    4    1 H      13, 15, 28, 32-60
constraining bond 12 31 to    1.9444000 Å, actual value:    1.8358100 Å
constraining bond 10 29 to    1.5000000 Å, actual value:    1.6123697 Å

           -------------------------------------------------
          |                 G F N 2 - x T B                 |
           -------------------------------------------------

        Reference                      10.1021/acs.jctc.8b01176
      * Hamiltonian:
        H0-scaling (s, p, d)           1.850000    2.230000    2.230000
        zeta-weighting                 0.500000
      * Dispersion:
        s8                             2.700000
        a1                             0.520000
        a2                             5.000000
        s9                             5.000000
      * Repulsion:
        kExp                           1.500000    1.000000
        rExp                           1.000000
      * Coulomb:
        alpha                          2.000000
        third order                    shell-resolved
        anisotropic                    true
        a3                             3.000000
        a5                             4.000000
        cn-shift                       1.200000
        cn-exp                         4.000000
        max-rad                        5.000000


          ...................................................
          :                      SETUP                      :
          :.................................................:
          :  # basis functions                 144          :
          :  # atomic orbitals                 144          :
          :  # shells                           88          :
          :  # electrons                       150          :
          :  max. iterations                   250          :
          :  Hamiltonian                  GFN2-xTB          :
          :  restarted?                      false          :
          :  GBSA solvation                  false          :
          :  PC potential                    false          :
          :  electronic temp.          300.0000000     K    :
          :  accuracy                    1.0000000          :
          :  -> integral cutoff          0.2500000E+02      :
          :  -> integral neglect         0.1000000E-07      :
          :  -> SCF convergence          0.1000000E-05 Eh   :
          :  -> wf. convergence          0.1000000E-03 e    :
          :  Broyden damping             0.4000000          :
          ...................................................

 iter      E             dE          RMSdq      gap      omega  full diag
   1    -82.9384889 -0.829385E+02  0.465E+00    3.00       0.0  T
   2    -83.3284656 -0.389977E+00  0.286E+00    2.44       1.0  T
   3    -83.3427296 -0.142640E-01  0.137E+00    2.81       1.0  T
   4    -83.3639601 -0.212306E-01  0.428E-01    2.62       1.0  T
   5    -83.3756095 -0.116494E-01  0.172E-01    2.69       1.0  T
   6    -83.3759928 -0.383216E-03  0.108E-01    2.70       1.0  T
   7    -83.3762405 -0.247710E-03  0.258E-02    2.69       1.0  T
   8    -83.3762579 -0.174769E-04  0.820E-03    2.69       1.6  T
   9    -83.3762590 -0.104013E-05  0.411E-03    2.69       3.1  T
  10    -83.3762591 -0.870447E-07  0.239E-03    2.69       5.4  T
  11    -83.3762593 -0.223755E-06  0.566E-04    2.69      22.8  T
  12    -83.3762593 -0.107993E-07  0.263E-04    2.69      49.0  T

   *** convergence criteria satisfied after 12 iterations ***

         #    Occupation            Energy/Eh            Energy/eV
      -------------------------------------------------------------
         1        2.0000           -0.6932997             -18.8656
       ...           ...                  ...                  ...
        69        2.0000           -0.4074611             -11.0876
        70        2.0000           -0.4015455             -10.9266
        71        2.0000           -0.3982512             -10.8370
        72        2.0000           -0.3950563             -10.7500
        73        2.0000           -0.3781556             -10.2901
        74        2.0000           -0.3716191             -10.1123
        75        2.0000           -0.3224158              -8.7734 (HOMO)
        76                         -0.2235347              -6.0827 (LUMO)
        77                         -0.2105855              -5.7303
        78                         -0.1543515              -4.2001
        79                         -0.1131050              -3.0777
        80                         -0.0907241              -2.4687
       ...                                ...                  ...
       144                          0.6961147              18.9422
      -------------------------------------------------------------
                  HL-Gap            0.0988811 Eh            2.6907 eV
             Fermi-level           -0.2729753 Eh           -7.4280 eV

 SCC (total)                   0 d,  0 h,  0 min,  0.067 sec
 SCC setup                      ...        0 min,  0.000 sec (  0.374%)
 Dispersion                     ...        0 min,  0.000 sec (  0.634%)
 classical contributions        ...        0 min,  0.000 sec (  0.260%)
 integral evaluation            ...        0 min,  0.006 sec (  9.005%)
 iterations                     ...        0 min,  0.033 sec ( 49.155%)
 molecular gradient             ...        0 min,  0.027 sec ( 40.058%)
 printout                       ...        0 min,  0.000 sec (  0.503%)

         :::::::::::::::::::::::::::::::::::::::::::::::::::::
         ::                     SUMMARY                     ::
         :::::::::::::::::::::::::::::::::::::::::::::::::::::
         :: total energy             -82.125056038594 Eh    ::
         :: gradient norm              1.679998879612 Eh/a0 ::
         :: HOMO-LUMO gap              2.690692070394 eV    ::
         ::.................................................::
         :: SCC energy               -83.376259307987 Eh    ::
         :: -> isotropic ES            0.148461331365 Eh    ::
         :: -> anisotropic ES          0.010795376006 Eh    ::
         :: -> anisotropic XC          0.025910874632 Eh    ::
         :: -> dispersion             -0.061049489671 Eh    ::
         :: repulsion energy           1.076173748967 Eh    ::
         :: add. restraining           0.174401753465 Eh    ::
         :: total charge              -0.000000000000 e     ::
         :::::::::::::::::::::::::::::::::::::::::::::::::::::

      ----------------------------------------------------------- 
     |                   =====================                   |
     |                        A N C O P T                        |
     |                   =====================                   |
     |               Approximate Normal Coordinate               |
     |                Rational Function Optimizer                |
      ----------------------------------------------------------- 

          ...................................................
          :                      SETUP                      :
          :.................................................:
          :   optimization level            normal          :
          :   max. optcycles                   200          :
          :   ANC micro-cycles                  20          :
          :   degrees of freedom               174          :
          :.................................................:
          :   RF solver                   davidson          :
          :   write xtbopt.log                true          :
          :   linear?                        false          :
          :   energy convergence         0.5000000E-05 Eh   :
          :   grad. convergence          0.1000000E-02 Eh/α :
          :   maximium RF displ.         1.0000000          :
          :   Hlow (freq-cutoff)         0.1000000E-01      :
          :   Hmax (freq-cutoff)         5.0000000          :
          :   S6 in model hess.         20.0000000          :
          ...................................................

generating ANC from model Hessian ...
Using Lindh-Hessian (1995)
 Shifting diagonal of input Hessian by   0.19757673584230950     
 Lowest  eigenvalues of input Hessian
    0.010000    0.136170    0.000000    0.000000    0.000000    0.000000
    0.000000    0.000000    0.197705    0.197724    0.197870    0.199259
    0.199477    0.200467    0.200875    0.200956    0.202303    0.202734
 Highest eigenvalues
    1.920510    1.994127    2.129293    2.178491    9.048607    9.307523


........................................................................
.............................. CYCLE    1 ..............................
........................................................................
   1    -83.3762593 -0.833763E+02  0.118E-04    2.69       0.0  T
   2    -83.3762593 -0.818432E-09  0.717E-05    2.69     180.0  T
   3    -83.3762593 -0.252939E-09  0.301E-05    2.69     428.3  T
     SCC iter.                  ...        0 min,  0.008 sec
     gradient                   ...        0 min,  0.027 sec
 * total energy  :   -82.1250560 Eh     change       -0.5659189E-09 Eh
   gradient norm :     1.6799991 Eh/α   predicted     0.0000000E+00 (-100.00%)
   displ. norm   :     0.3103994 α      lambda       -0.5161117E+00
   maximum displ.:     0.2364451 α      in ANC's #174, #173, #124, ...

........................................................................
.............................. CYCLE    2 ..............................
........................................................................
   1    -83.3817287 -0.833817E+02  0.365E-01    2.89       0.0  T
   2    -83.3819109 -0.182191E-03  0.277E-01    2.91       1.0  T
   3    -83.3823608 -0.449884E-03  0.154E-01    2.89       1.0  T
   4    -83.3829919 -0.631133E-03  0.318E-02    2.89       1.0  T
   5    -83.3830470 -0.551006E-04  0.636E-03    2.90       2.0  T
   6    -83.3830479 -0.881431E-06  0.349E-03    2.90       3.7  T
   7    -83.3830481 -0.164699E-06  0.882E-04    2.90      14.6  T
   8    -83.3830481 -0.251727E-08  0.383E-04    2.90      33.7  T
     SCC iter.                  ...        0 min,  0.021 sec
     gradient                   ...        0 min,  0.027 sec
 * total energy  :   -82.2532806 Eh     change       -0.1282246E+00 Eh
   gradient norm :     0.8716890 Eh/α   predicted    -0.2829584E+00 ( 120.67%)
   displ. norm   :     0.1070459 α      lambda       -0.9052158E-01
   maximum displ.:     0.0750782 α      in ANC's #174, #173, #37, ...

........................................................................
.............................. CYCLE    3 ..............................
........................................................................
   1    -83.3819839 -0.833820E+02  0.117E-01    2.84       0.0  T
   2    -83.3820443 -0.604296E-04  0.932E-02    2.83       1.0  T
   3    -83.3821737 -0.129345E-03  0.504E-02    2.84       1.0  T
   4    -83.3821992 -0.255653E-04  0.142E-02    2.84       1.0  T
   5    -83.3822103 -0.110386E-04  0.289E-03    2.83       4.5  T
   6    -83.3822106 -0.330580E-06  0.127E-03    2.83      10.2  T
   7    -83.3822106 -0.168504E-07  0.374E-04    2.83      34.5  T
   8    -83.3822106 -0.109213E-08  0.139E-04    2.83      92.6  T
     SCC iter.                  ...        0 min,  0.021 sec
     gradient                   ...        0 min,  0.027 sec
 * total energy  :   -82.2988403 Eh     change       -0.4555969E-01 Eh
   gradient norm :     0.0449286 Eh/α   predicted    -0.4578113E-01 (   0.49%)
   displ. norm   :     0.0379252 α      lambda       -0.1068507E-02
   maximum displ.:     0.0217179 α      in ANC's #37, #109, #153, ...

........................................................................
.............................. CYCLE    4 ..............................
........................................................................
   1    -83.3825813 -0.833826E+02  0.267E-02    2.83       0.0  T
   2    -83.3825866 -0.527175E-05  0.180E-02    2.84       1.0  T
   3    -83.3825890 -0.240355E-05  0.112E-02    2.84       1.2  T
   4    -83.3825916 -0.262671E-05  0.305E-03    2.84       4.2  T
   5    -83.3825920 -0.395076E-06  0.983E-04    2.84      13.1  T
   6    -83.3825921 -0.494136E-07  0.266E-04    2.84      48.5  T
     SCC iter.                  ...        0 min,  0.016 sec
     gradient                   ...        0 min,  0.027 sec
 * total energy  :   -82.2995591 Eh     change       -0.7187322E-03 Eh
   gradient norm :     0.0295030 Eh/α   predicted    -0.5351326E-03 ( -25.54%)
   displ. norm   :     0.0875367 α      lambda       -0.1018030E-02
   maximum displ.:     0.0509641 α      in ANC's #1, #37, #109, ...

........................................................................
.............................. CYCLE    5 ..............................
........................................................................
   1    -83.3836413 -0.833836E+02  0.547E-02    2.85       0.0  T
   2    -83.3836513 -0.100490E-04  0.336E-02    2.86       1.0  T
   3    -83.3836387  0.126748E-04  0.218E-02    2.86       1.0  T
   4    -83.3836579 -0.192250E-04  0.397E-03    2.86       3.3  T
   5    -83.3836586 -0.749784E-06  0.119E-03    2.86      10.9  T
   6    -83.3836587 -0.551182E-07  0.502E-04    2.86      25.7  T
   7    -83.3836587 -0.513586E-08  0.211E-04    2.86      61.2  T
     SCC iter.                  ...        0 min,  0.018 sec
     gradient                   ...        0 min,  0.027 sec
 * total energy  :   -82.2999890 Eh     change       -0.4299213E-03 Eh
   gradient norm :     0.0131358 Eh/α   predicted    -0.5129398E-03 (  19.31%)
   displ. norm   :     0.3419688 α      lambda       -0.2080726E-02
   maximum displ.:     0.3064000 α      in ANC's #1, #37, #109, ...

........................................................................
.............................. CYCLE    6 ..............................
........................................................................
   1    -83.3800970 -0.833801E+02  0.205E-01    2.86       0.0  T
   2    -83.3801438 -0.467953E-04  0.125E-01    2.87       1.0  T
   3    -83.3799576  0.186221E-03  0.825E-02    2.88       1.0  T
   4    -83.3802197 -0.262071E-03  0.680E-03    2.87       1.9  T
   5    -83.3802215 -0.182745E-05  0.253E-03    2.87       5.1  T
   6    -83.3802215 -0.214677E-07  0.171E-03    2.87       7.6  T
   7    -83.3802216 -0.881232E-07  0.528E-04    2.87      24.5  T
   8    -83.3802216 -0.755298E-08  0.161E-04    2.87      80.0  T
     SCC iter.                  ...        0 min,  0.021 sec
     gradient                   ...        0 min,  0.027 sec
 * total energy  :   -82.2943478 Eh     change        0.5641144E-02 Eh
   gradient norm :     0.1264115 Eh/α   predicted    -0.1161949E-02 (-120.60%)
   displ. norm   :     0.2585203 α      lambda       -0.1226629E-01
   maximum displ.:     0.2363821 α      in ANC's #1, #37, #109, ...

........................................................................
.............................. CYCLE    7 ..............................
........................................................................
   1    -83.3846437 -0.833846E+02  0.159E-01    2.87       0.0  T
   2    -83.3846758 -0.320753E-04  0.973E-02    2.86       1.0  T
   3    -83.3845632  0.112605E-03  0.648E-02    2.86       1.0  T
   4    -83.3847256 -0.162350E-03  0.557E-03    2.86       2.3  T
   5    -83.3847269 -0.134084E-05  0.191E-03    2.86       6.7  T
   6    -83.3847269 -0.235373E-07  0.115E-03    2.86      11.2  T
   7    -83.3847269 -0.291854E-07  0.379E-04    2.86      34.1  T
   8    -83.3847269 -0.349777E-08  0.142E-04    2.86      90.8  T
     SCC iter.                  ...        0 min,  0.021 sec
     gradient                   ...        0 min,  0.027 sec
 * total energy  :   -82.3002721 Eh     change       -0.5924229E-02 Eh
   gradient norm :     0.0179977 Eh/α   predicted    -0.6545144E-02 (  10.48%)
   displ. norm   :     0.0227101 α      lambda       -0.1622058E-03
   maximum displ.:     0.0160453 α      in ANC's #1, #37, #28, ...

........................................................................
.............................. CYCLE    8 ..............................
........................................................................
   1    -83.3849169 -0.833849E+02  0.138E-02    2.86       0.0  T
   2    -83.3849175 -0.618568E-06  0.906E-03    2.86       1.4  T
   3    -83.3849173  0.270232E-06  0.575E-03    2.86       2.2  T
   4    -83.3849184 -0.110873E-05  0.109E-03    2.86      11.8  T
   5    -83.3849184 -0.531547E-07  0.342E-04    2.86      37.8  T
   6    -83.3849184 -0.508132E-08  0.133E-04    2.86      97.0  T
     SCC iter.                  ...        0 min,  0.016 sec
     gradient                   ...        0 min,  0.027 sec
 * total energy  :   -82.3003880 Eh     change       -0.1159675E-03 Eh
   gradient norm :     0.0051662 Eh/α   predicted    -0.8107033E-04 ( -30.09%)
   displ. norm   :     0.0475231 α      lambda       -0.1620967E-03
   maximum displ.:     0.0365712 α      in ANC's #37, #28, #36, ...

........................................................................
.............................. CYCLE    9 ..............................
........................................................................
   1    -83.3853370 -0.833853E+02  0.240E-02    2.87       0.0  T
   2    -83.3853375 -0.459706E-06  0.147E-02    2.87       1.0  T
   3    -83.3853343  0.319615E-05  0.805E-03    2.86       1.6  T
   4    -83.3853381 -0.379538E-05  0.104E-03    2.87      12.4  T
   5    -83.3853381 -0.470930E-07  0.348E-04    2.87      37.1  T
   6    -83.3853382 -0.260387E-08  0.191E-04    2.87      67.5  T
     SCC iter.                  ...        0 min,  0.016 sec
     gradient                   ...        0 min,  0.027 sec
 * total energy  :   -82.3005084 Eh     change       -0.1203689E-03 Eh
   gradient norm :     0.0089734 Eh/α   predicted    -0.8106636E-04 ( -32.65%)
   displ. norm   :     0.0705126 α      lambda       -0.1568361E-03
   maximum displ.:     0.0554665 α      in ANC's #37, #28, #36, ...

........................................................................
.............................. CYCLE   10 ..............................
........................................................................
   1    -83.3858567 -0.833859E+02  0.344E-02    2.87       0.0  T
   2    -83.3858571 -0.416426E-06  0.207E-02    2.87       1.0  T
   3    -83.3858542  0.297480E-05  0.717E-03    2.87       1.8  T
   4    -83.3858575 -0.333912E-05  0.969E-04    2.87      13.3  T
   5    -83.3858575 -0.370496E-07  0.422E-04    2.87      30.6  T
   6    -83.3858576 -0.155519E-08  0.241E-04    2.87      53.5  T
     SCC iter.                  ...        0 min,  0.016 sec
     gradient                   ...        0 min,  0.027 sec
 * total energy  :   -82.3006091 Eh     change       -0.1006860E-03 Eh
   gradient norm :     0.0072269 Eh/α   predicted    -0.7854693E-04 ( -21.99%)
   displ. norm   :     0.0339652 α      lambda       -0.4262532E-04
   maximum displ.:     0.0240462 α      in ANC's #37, #28, #36, ...

........................................................................
.............................. CYCLE   11 ..............................
........................................................................
   1    -83.3862002 -0.833862E+02  0.161E-02    2.87       0.0  T
   2    -83.3862002 -0.588200E-07  0.956E-03    2.87       1.4  T
   3    -83.3861997  0.502597E-06  0.324E-03    2.87       4.0  T
   4    -83.3862003 -0.559936E-06  0.361E-04    2.87      35.8  T
   5    -83.3862003 -0.379002E-08  0.182E-04    2.87      71.1  T
     SCC iter.                  ...        0 min,  0.013 sec
     gradient                   ...        0 min,  0.027 sec
 * total energy  :   -82.3006369 Eh     change       -0.2783314E-04 Eh
   gradient norm :     0.0025702 Eh/α   predicted    -0.2133917E-04 ( -23.33%)
   displ. norm   :     0.0154619 α      lambda       -0.1518938E-04
   maximum displ.:     0.0077386 α      in ANC's #28, #37, #1, ...

........................................................................
.............................. CYCLE   12 ..............................
........................................................................
   1    -83.3864959 -0.833865E+02  0.691E-03    2.87       0.0  T
   2    -83.3864960 -0.339260E-07  0.420E-03    2.87       3.1  T
   3    -83.3864956  0.302088E-06  0.251E-03    2.87       5.1  T
   4    -83.3864960 -0.347630E-06  0.276E-04    2.87      46.7  T
   5    -83.3864960 -0.326317E-08  0.103E-04    2.87     125.7  T
     SCC iter.                  ...        0 min,  0.013 sec
     gradient                   ...        0 min,  0.027 sec
 * total energy  :   -82.3006479 Eh     change       -0.1097927E-04 Eh
   gradient norm :     0.0016112 Eh/α   predicted    -0.7609432E-05 ( -30.69%)
   displ. norm   :     0.0241080 α      lambda       -0.1329412E-04
   maximum displ.:     0.0134159 α      in ANC's #28, #17, #6, ...

........................................................................
.............................. CYCLE   13 ..............................
........................................................................
   1    -83.3870110 -0.833870E+02  0.975E-03    2.87       0.0  T
   2    -83.3870111 -0.892174E-07  0.603E-03    2.87       2.1  T
   3    -83.3870104  0.716467E-06  0.376E-03    2.87       3.4  T
   4    -83.3870112 -0.832033E-06  0.483E-04    2.87      26.7  T
   5    -83.3870112 -0.103949E-07  0.147E-04    2.87      88.1  T
     SCC iter.                  ...        0 min,  0.013 sec
     gradient                   ...        0 min,  0.027 sec
 * total energy  :   -82.3006599 Eh     change       -0.1197638E-04 Eh
   gradient norm :     0.0029679 Eh/α   predicted    -0.6651702E-05 ( -44.46%)
   displ. norm   :     0.0109656 α      lambda       -0.8456309E-05
   maximum displ.:     0.0053558 α      in ANC's #28, #17, #6, ...

........................................................................
.............................. CYCLE   14 ..............................
........................................................................
   1    -83.3871353 -0.833871E+02  0.410E-03    2.87       0.0  T
   2    -83.3871353 -0.772785E-08  0.243E-03    2.87       5.3  T
   3    -83.3871352  0.370036E-07  0.838E-04    2.87      15.4  T
   4    -83.3871353 -0.404858E-07  0.158E-04    2.87      81.7  T
     SCC iter.                  ...        0 min,  0.011 sec
     gradient                   ...        0 min,  0.027 sec
 * total energy  :   -82.3006671 Eh     change       -0.7258676E-05 Eh
   gradient norm :     0.0021628 Eh/α   predicted    -0.4234263E-05 ( -41.67%)
   displ. norm   :     0.0317283 α      lambda       -0.1966578E-04
   maximum displ.:     0.0152526 α      in ANC's #28, #17, #6, ...

........................................................................
.............................. CYCLE   15 ..............................
........................................................................
   1    -83.3873223 -0.833873E+02  0.110E-02    2.86       0.0  T
   2    -83.3873224 -0.494600E-07  0.650E-03    2.86       2.0  T
   3    -83.3873222  0.206988E-06  0.210E-03    2.86       6.2  T
   4    -83.3873224 -0.231159E-06  0.323E-04    2.86      39.9  T
   5    -83.3873224 -0.431956E-08  0.147E-04    2.86      88.1  T
     SCC iter.                  ...        0 min,  0.013 sec
     gradient                   ...        0 min,  0.027 sec
 * total energy  :   -82.3006787 Eh     change       -0.1158074E-04 Eh
   gradient norm :     0.0013525 Eh/α   predicted    -0.9847494E-05 ( -14.97%)
   displ. norm   :     0.0158800 α      lambda       -0.4052471E-05
   maximum displ.:     0.0075390 α      in ANC's #6, #17, #28, ...

........................................................................
.............................. CYCLE   16 ..............................
........................................................................
   1    -83.3872482 -0.833872E+02  0.481E-03    2.86       0.0  T
   2    -83.3872482 -0.146719E-07  0.286E-03    2.86       4.5  T
   3    -83.3872481  0.878184E-07  0.141E-03    2.86       9.1  T
   4    -83.3872482 -0.999124E-07  0.185E-04    2.86      69.9  T
   5    -83.3872482 -0.126789E-08  0.746E-05    2.86     173.1  T
     SCC iter.                  ...        0 min,  0.013 sec
     gradient                   ...        0 min,  0.027 sec
 * total energy  :   -82.3006833 Eh     change       -0.4619116E-05 Eh
   gradient norm :     0.0013488 Eh/α   predicted    -0.2031067E-05 ( -56.03%)
   displ. norm   :     0.0226665 α      lambda       -0.7044251E-05
   maximum displ.:     0.0124451 α      in ANC's #6, #17, #11, ...

........................................................................
.............................. CYCLE   17 ..............................
........................................................................
   1    -83.3869841 -0.833870E+02  0.636E-03    2.86       0.0  T
   2    -83.3869841 -0.358934E-07  0.385E-03    2.86       3.4  T
   3    -83.3869840  0.169838E-06  0.192E-03    2.86       6.7  T
   4    -83.3869841 -0.191312E-06  0.331E-04    2.86      39.0  T
   5    -83.3869842 -0.509075E-08  0.100E-04    2.86     128.7  T
     SCC iter.                  ...        0 min,  0.013 sec
     gradient                   ...        0 min,  0.027 sec
 * total energy  :   -82.3006905 Eh     change       -0.7180739E-05 Eh
   gradient norm :     0.0010035 Eh/α   predicted    -0.3526903E-05 ( -50.88%)
   displ. norm   :     0.0189922 α      lambda       -0.3908267E-05
   maximum displ.:     0.0114257 α      in ANC's #6, #17, #11, ...

........................................................................
.............................. CYCLE   18 ..............................
........................................................................
   1    -83.3868762 -0.833869E+02  0.411E-03    2.86       0.0  T
   2    -83.3868762 -0.859386E-08  0.247E-03    2.86       5.2  T
   3    -83.3868762  0.142194E-07  0.506E-04    2.86      25.5  T
   4    -83.3868762 -0.162034E-07  0.134E-04    2.86      96.2  T
     SCC iter.                  ...        0 min,  0.010 sec
     gradient                   ...        0 min,  0.027 sec
 * total energy  :   -82.3006949 Eh     change       -0.4400018E-05 Eh
   gradient norm :     0.0009583 Eh/α   predicted    -0.1957746E-05 ( -55.51%)
   displ. norm   :     0.0249336 α      lambda       -0.4510261E-05
   maximum displ.:     0.0161730 α      in ANC's #6, #17, #11, ...

   *** GEOMETRY OPTIMIZATION CONVERGED AFTER 18 ITERATIONS ***

------------------------------------------------------------------------
 total energy gain   :        -0.1756389 Eh     -110.2151 kcal/mol
 total RMSD          :         0.0572773 a0        0.0303 Å
 total power (kW/mol):       -25.6188796 (step) -503.8210 (real)
------------------------------------------------------------------------

 ANCopt (total)                0 d,  0 h,  0 min,  0.915 sec
 optimizer setup                ...        0 min,  0.000 sec (  0.009%)
 model hessian                  ...        0 min,  0.031 sec (  3.425%)
 ANC generation                 ...        0 min,  0.003 sec (  0.282%)
 coordinate transformation      ...        0 min,  0.000 sec (  0.028%)
 single point calculation       ...        0 min,  0.875 sec ( 95.595%)
 optimization log               ...        0 min,  0.004 sec (  0.392%)
 hessian update                 ...        0 min,  0.000 sec (  0.043%)
 rational function              ...        0 min,  0.001 sec (  0.149%)

================
 final structure:
================
60
 xtb: 6.5.0 (homebrew)
C            3.47981072720614      -37.75225093223795       15.89963669318448
C            3.72053120972371      -38.13025289819240       17.35925573338067
O            3.25178011021949      -37.07627061075222       18.20212687205917
C            2.89436572552439      -39.37676998237240       17.69882396969153
C            5.23188676095018      -38.26604671973560       17.77086095518160
C            5.74320048818766      -39.69959219148596       17.88809309526927
C            6.17271281315565      -37.46856042700356       16.85937494338237
O            5.27480310922784      -37.63852693413931       19.05487775411686
B            4.14844278687321      -36.88836055233628       19.21573789328229
C            3.89879720945516      -35.89023991801257       20.40716752629051
C            4.93403519776516      -35.86941152137471       21.43455774117032
C            4.96092029762530      -35.05390143588149       22.51003980243297
H            5.88303612754740      -35.02534363124673       23.08178635965677
C            3.83072708984649      -34.27743515680621       23.07867645933311
H            4.06661579693772      -33.88103149343181       24.06435071949220
C            2.46448286326192      -34.89743786905632       23.11974275339340
B            1.71932328263602      -34.90012798692945       24.48628360802643
O            2.22469552689204      -34.37753088454709       25.64707184873956
C            1.35570347932573      -34.72691591027594       26.72335172448031
C            1.21117361481910      -33.53997986807067       27.67322632405951
C            2.01980181749181      -35.89003793153323       27.47179587580874
C            0.03250536263896      -35.15189168478102       25.98908129199517
C           -0.98249906090353      -34.00698238929125       25.87675238875172
C           -0.66369844539281      -36.37911990835845       26.57345484348170
O            0.47713287667870      -35.44530313485502       24.66627392574246
C            1.89348483415430      -35.46771632867610       22.05452285730262
C            2.43199283741360      -35.58719393281624       20.70225430827387
H            1.75967757564234      -36.08253522374860       20.01254253336753
C            3.30164217752044      -34.55623368736254       20.04931249441900
C            3.84249762709786      -33.37987411572217       20.70246804040040
C            4.20605869277130      -33.33040849769127       22.00260809243425
H            4.76687240297080      -32.45826051997309       22.32367684879095
H            2.40839973523880      -37.69930757999074       15.72261637944314
H            3.90854213586141      -38.50232874282887       15.24092300880744
H            3.90634095857797      -36.78118831183893       15.66992793085894
H            1.84264760175474      -39.14826433255543       17.54206898267801
H            3.02789903391353      -39.64439922332193       18.74393037919450
H            3.17165896807108      -40.21432949619120       17.06586060430901
H            5.64102192286039      -40.21433694730366       16.93657252869053
H            5.20668250258253      -40.24653916453381       18.65639007914034
H            6.79440294472615      -39.67601769978749       18.16409804053452
H            6.22253866595289      -37.90534178071713       15.86664100887558
H            7.16688065713588      -37.47521043966160       17.30009020535532
H            5.84372191400720      -36.43461195437517       16.79138046438248
H            5.84202634111702      -36.38773781860743       21.15875261318505
H            2.17287723136312      -33.34204001909058       28.14013765447352
H            0.48455941258965      -33.76737320717568       28.44874823715722
H            0.90507793665430      -32.64536000626625       27.14082106110819
H            3.00247411461122      -35.56821153307053       27.80910634389688
H            2.15516484777644      -36.73701418683224       26.80383070685851
H            1.43114391568468      -36.19022996608650       28.33351033910786
H           -1.40042619150672      -33.75554481897279       26.84698657121933
H           -1.78614949884388      -34.32359080267850       25.21589059792651
H           -0.51375208360053      -33.12996954197830       25.43768209574675
H           -0.93030101280694      -36.20259800510073       27.61197771779822
H           -0.03120089889442      -37.25812177344007       26.50455173251897
H           -1.57015944253914      -36.57177859621361       26.00498851689074
H            0.91070741687913      -35.90045370589054       22.19003853886152
H            3.09867761506515      -34.41150334161233       18.99220197780829
H            4.19970034050399      -32.60211272518050       20.04022940578119

 Bond Distances (Angstroems)
 ---------------------------
C1-C2=1.5269         C1-H33=1.0872        C1-H34=1.0864        C1-H35=1.0852        C2-C1=1.5269         C2-O3=1.4286         
C2-C4=1.5335         C2-C5=1.5723         O3-C2=1.4286         O3-B9=1.3663         C4-C2=1.5335         C4-H36=1.0876        
C4-H37=1.0871        C4-H38=1.0858        C5-C2=1.5723         C5-C6=1.5265         C5-C7=1.5336         C5-O8=1.4298         
C6-C5=1.5265         C6-H39=1.0866        C6-H40=1.0850        C6-H41=1.0871        C7-C5=1.5336         C7-H42=1.0857        
C7-H43=1.0875        C7-H44=1.0872        O8-C5=1.4298         O8-B9=1.3628         B9-O3=1.3663         B9-O8=1.3628         
B9-C10=1.5742        C10-B9=1.5742        C10-C11=1.4587       C10-C27=1.5266       C10-C29=1.5047       C11-C10=1.4587       
C11-C12=1.3500       C11-H45=1.0813       C12-C11=1.3500       C12-H13=1.0854       C12-C14=1.4844       C12-C31=1.9488       
H13-C12=1.0854       C14-C12=1.4844       C14-H15=1.0883       C14-C16=1.5009       C14-C31=1.4818       H15-C14=1.0883       
C16-C14=1.5009       C16-B17=1.5565       C16-C26=1.3364       B17-C16=1.5565       B17-O18=1.3696       B17-O25=1.3684       
O18-B17=1.3696       O18-C19=1.4267       C19-O18=1.4267       C19-C20=1.5271       C19-C21=1.5343       C19-C22=1.5718       
C20-C19=1.5271       C20-H46=1.0872       C20-H47=1.0868       C20-H48=1.0851       C21-C19=1.5343       C21-H49=1.0877       
C21-H50=1.0871       C21-H51=1.0859       C22-C19=1.5718       C22-C23=1.5342       C22-C24=1.5272       C22-O25=1.4260       
C23-C22=1.5342       C23-H52=1.0859       C23-H53=1.0876       C23-H54=1.0870       C24-C22=1.5272       C24-H55=1.0866       
C24-H56=1.0851       C24-H57=1.0872       O25-B17=1.3684       O25-C22=1.4260       C26-C16=1.3364       C26-C27=1.4604       
C26-H58=1.0823       C27-C10=1.5266       C27-C26=1.4604       C27-H28=1.0831       C27-C29=1.4985       H28-C27=1.0831       
C29-C10=1.5047       C29-C27=1.4985       C29-C30=1.4502       C29-H59=1.0861       C30-C29=1.4502       C30-C31=1.3509       
C30-H60=1.0822       C31-C12=1.9488       C31-C14=1.4818       C31-C30=1.3509       C31-H32=1.0855       H32-C31=1.0855       
H33-C1=1.0872        H34-C1=1.0864        H35-C1=1.0852        H36-C4=1.0876        H37-C4=1.0871        H38-C4=1.0858        
H39-C6=1.0866        H40-C6=1.0850        H41-C6=1.0871        H42-C7=1.0857        H43-C7=1.0875        H44-C7=1.0872        
H45-C11=1.0813       H46-C20=1.0872       H47-C20=1.0868       H48-C20=1.0851       H49-C21=1.0877       H50-C21=1.0871       
H51-C21=1.0859       H52-C23=1.0859       H53-C23=1.0876       H54-C23=1.0870       H55-C24=1.0866       H56-C24=1.0851       
H57-C24=1.0872       H58-C26=1.0823       H59-C29=1.0861       H60-C30=1.0822       
 C  H  Rav=1.0860 sigma=0.0017  Rmin=1.0813  Rmax=1.0883    32
 C  B  Rav=1.5653 sigma=0.0088  Rmin=1.5565  Rmax=1.5742     2
 C  C  Rav=1.5104 sigma=0.1133  Rmin=1.3364  Rmax=1.9488    23
 O  B  Rav=1.3668 sigma=0.0026  Rmin=1.3628  Rmax=1.3696     4
 O  C  Rav=1.4278 sigma=0.0015  Rmin=1.4260  Rmax=1.4298     4

 selected bond angles (degree)
 --------------------
H33-C1-C2=108.85               H34-C1-C2=110.27               H34-C1-H33=108.89              H35-C1-C2=111.22               
H35-C1-H33=108.02              H35-C1-H34=109.53              O3-C2-C1=109.25                C4-C2-C1=109.15                
C4-C2-O3=106.99                C5-C2-C1=115.04                C5-C2-O3=102.98                C5-C2-C4=112.94                
B9-O3-C2=108.89                H36-C4-C2=108.56               H37-C4-C2=110.29               H37-C4-H36=108.00              
H38-C4-C2=111.12               H38-C4-H36=108.96              H38-C4-H37=109.83              C6-C5-C2=115.04                
C7-C5-C2=112.90                C7-C5-C6=109.18                O8-C5-C2=103.06                O8-C5-C6=109.46                
O8-C5-C7=106.68                H39-C6-C5=110.25               H40-C6-C5=111.23               H40-C6-H39=109.56              
H41-C6-C5=108.85               H41-C6-H39=108.88              H41-C6-H40=108.02              H42-C7-C5=111.25               
H43-C7-C5=108.47               H43-C7-H42=109.03              H44-C7-C5=110.25               H44-C7-H42=109.83              
H44-C7-H43=107.93              B9-O8-C5=108.83                O8-B9-O3=112.28                C10-B9-O3=123.00               
C10-B9-O8=124.71               C11-C10-B9=115.44              C27-C10-B9=115.12              C27-C10-C11=122.88             
C29-C10-B9=116.43              C29-C10-C11=115.88             C29-C10-C27= 59.25             

 selected dihedral angles (degree)
 ---------------------------------
O3-C2-C1-H33=294.44           O3-C2-C1-H34=175.05           O3-C2-C1-H35= 53.33           C4-C2-C1-H33= 51.12           
C4-C2-C1-H34=291.72           C4-C2-C1-H35=170.00           C5-C2-C1-H33=179.25           C5-C2-C1-H34= 59.85           
C5-C2-C1-H35=298.13           B9-O3-C2-C1=221.22            B9-O3-C2-C4=103.19            B9-O3-C2-C5=343.94            
H36-C4-C2-C1=299.92           H36-C4-C2-O3= 58.01           H36-C4-C2-C5=170.62           H37-C4-C2-C1=181.77           
H37-C4-C2-O3=299.86           H37-C4-C2-C5= 52.47           H38-C4-C2-C1= 59.73           H38-C4-C2-O3=177.83           
H38-C4-C2-C5=290.43           C6-C5-C2-C1=257.36            C6-C5-C2-O3=138.61            C6-C5-C2-C4= 23.57            
C7-C5-C2-C1= 23.58            C7-C5-C2-O3=264.83            C7-C5-C2-C4=149.79            O8-C5-C2-C1=138.29            
O8-C5-C2-O3= 19.54            O8-C5-C2-C4=264.50            H39-C6-C5-C2= 59.99           H39-C6-C5-C7=291.87           
H39-C6-C5-O8=175.43           H40-C6-C5-C2=298.24           H40-C6-C5-C7=170.13           H40-C6-C5-O8= 53.69           
H41-C6-C5-C2=179.35           H41-C6-C5-C7= 51.23           H41-C6-C5-O8=294.79           H42-C7-C5-C2=290.56           
H42-C7-C5-C6= 59.86           H42-C7-C5-O8=178.06           H43-C7-C5-C2=170.64           H43-C7-C5-C6=299.94           
H43-C7-C5-O8= 58.14           H44-C7-C5-C2= 52.67           H44-C7-C5-C6=181.97           H44-C7-C5-O8=300.16           
B9-O8-C5-C2=343.51            B9-O8-C5-C6=220.64            B9-O8-C5-C7=102.63            O8-B9-O3-C2=  6.60            
C10-B9-O3-C2=185.40           O3-B9-O8-C5=  7.32            C10-B9-O8-C5=188.55           C11-C10-B9-O3=176.99          
C11-C10-B9-O8=355.64          C27-C10-B9-O3= 24.48          C27-C10-B9-O8=203.13          C29-C10-B9-O3=317.91          
C29-C10-B9-O8=136.56          
           -------------------------------------------------
          |                Final Singlepoint                |
           -------------------------------------------------

          ...................................................
          :                      SETUP                      :
          :.................................................:
          :  # basis functions                 144          :
          :  # atomic orbitals                 144          :
          :  # shells                           88          :
          :  # electrons                       150          :
          :  max. iterations                   250          :
          :  Hamiltonian                  GFN2-xTB          :
          :  restarted?                      false          :
          :  GBSA solvation                  false          :
          :  PC potential                    false          :
          :  electronic temp.          300.0000000     K    :
          :  accuracy                    1.0000000          :
          :  -> integral cutoff          0.2500000E+02      :
          :  -> integral neglect         0.1000000E-07      :
          :  -> SCF convergence          0.1000000E-05 Eh   :
          :  -> wf. convergence          0.1000000E-03 e    :
          :  Broyden damping             0.4000000          :
          ...................................................

 iter      E             dE          RMSdq      gap      omega  full diag
   1    -83.3868762 -0.833869E+02  0.622E-05    2.86       0.0  T
   2    -83.3868762 -0.207478E-11  0.487E-05    2.86     265.1  T
   3    -83.3868762 -0.728448E-10  0.262E-05    2.86     492.9  T

   *** convergence criteria satisfied after 3 iterations ***

         #    Occupation            Energy/Eh            Energy/eV
      -------------------------------------------------------------
         1        2.0000           -0.6943468             -18.8941
       ...           ...                  ...                  ...
        69        2.0000           -0.4060757             -11.0499
        70        2.0000           -0.4021716             -10.9436
        71        2.0000           -0.3984034             -10.8411
        72        2.0000           -0.3943232             -10.7301
        73        2.0000           -0.3775196             -10.2728
        74        2.0000           -0.3710005             -10.0954
        75        2.0000           -0.3269896              -8.8978 (HOMO)
        76                         -0.2220177              -6.0414 (LUMO)
        77                         -0.2067674              -5.6264
        78                         -0.1560569              -4.2465
        79                         -0.1307447              -3.5577
        80                         -0.0938985              -2.5551
       ...                                ...                  ...
       144                          0.6933259              18.8664
      -------------------------------------------------------------
                  HL-Gap            0.1049720 Eh            2.8564 eV
             Fermi-level           -0.2745036 Eh           -7.4696 eV

 SCC (total)                   0 d,  0 h,  0 min,  0.042 sec
 SCC setup                      ...        0 min,  0.000 sec (  0.522%)
 Dispersion                     ...        0 min,  0.000 sec (  0.878%)
 classical contributions        ...        0 min,  0.000 sec (  0.402%)
 integral evaluation            ...        0 min,  0.006 sec ( 13.873%)
 iterations                     ...        0 min,  0.008 sec ( 19.176%)
 molecular gradient             ...        0 min,  0.027 sec ( 64.319%)
 printout                       ...        0 min,  0.000 sec (  0.820%)

         :::::::::::::::::::::::::::::::::::::::::::::::::::::
         ::                     SUMMARY                     ::
         :::::::::::::::::::::::::::::::::::::::::::::::::::::
         :: total energy             -82.300694925991 Eh    ::
         :: gradient norm              0.000958494633 Eh/a0 ::
         :: HOMO-LUMO gap              2.856432360063 eV    ::
         ::.................................................::
         :: SCC energy               -83.386876230930 Eh    ::
         :: -> isotropic ES            0.148342918889 Eh    ::
         :: -> anisotropic ES          0.010786125339 Eh    ::
         :: -> anisotropic XC          0.026209017783 Eh    ::
         :: -> dispersion             -0.061348280491 Eh    ::
         :: repulsion energy           1.085251029185 Eh    ::
         :: add. restraining           0.000296954263 Eh    ::
         :: total charge              -0.000000000000 e     ::
         :::::::::::::::::::::::::::::::::::::::::::::::::::::

           -------------------------------------------------
          |                Property Printout                |
           -------------------------------------------------

    * Orbital Energies and Occupations

         #    Occupation            Energy/Eh            Energy/eV
      -------------------------------------------------------------
         1        2.0000           -0.6943468             -18.8941
       ...           ...                  ...                  ...
        63        2.0000           -0.4375583             -11.9066
        64        2.0000           -0.4356564             -11.8548
        65        2.0000           -0.4287483             -11.6668
        66        2.0000           -0.4243889             -11.5482
        67        2.0000           -0.4177507             -11.3676
        68        2.0000           -0.4109212             -11.1817
        69        2.0000           -0.4060757             -11.0499
        70        2.0000           -0.4021716             -10.9436
        71        2.0000           -0.3984034             -10.8411
        72        2.0000           -0.3943232             -10.7301
        73        2.0000           -0.3775196             -10.2728
        74        2.0000           -0.3710005             -10.0954
        75        2.0000           -0.3269896              -8.8978 (HOMO)
        76                         -0.2220177              -6.0414 (LUMO)
        77                         -0.2067674              -5.6264
        78                         -0.1560569              -4.2465
        79                         -0.1307447              -3.5577
        80                         -0.0938985              -2.5551
        81                         -0.0001803              -0.0049
        82                          0.0126473               0.3442
        83                          0.0197552               0.5376
        84                          0.0264794               0.7205
        85                          0.0315656               0.8589
        86                          0.0527447               1.4353
       ...                                ...                  ...
       144                          0.6933259              18.8664
      -------------------------------------------------------------
                  HL-Gap            0.1049720 Eh            2.8564 eV
             Fermi-level           -0.2745036 Eh           -7.4696 eV

     #   Z          covCN         q      C6AA      α(0)
     1   6 C        3.755    -0.118    22.807     6.809
     2   6 C        3.858     0.129    18.446     6.108
     3   8 O        1.638    -0.376    20.393     6.096
     4   6 C        3.755    -0.117    22.792     6.807
     5   6 C        3.860     0.129    18.453     6.109
     6   6 C        3.755    -0.118    22.819     6.811
     7   6 C        3.755    -0.117    22.787     6.807
     8   8 O        1.638    -0.369    20.272     6.078
     9   5 B        2.658     0.441    15.459     6.621
    10   6 C        3.837    -0.053    21.499     6.596
    11   6 C        2.893    -0.062    29.546     8.912
    12   6 C        3.484    -0.015    22.734     7.116
    13   1 H        0.925     0.025     2.656     2.549
    14   6 C        3.867    -0.017    20.843     6.492
    15   1 H        0.925     0.043     2.403     2.424
    16   6 C        2.864    -0.088    30.210     9.009
    17   5 B        2.661     0.431    15.566     6.641
    18   8 O        1.638    -0.373    20.350     6.089
    19   6 C        3.859     0.129    18.451     6.109
    20   6 C        3.755    -0.117    22.792     6.807
    21   6 C        3.755    -0.116    22.770     6.804
    22   6 C        3.859     0.129    18.451     6.109
    23   6 C        3.755    -0.116    22.778     6.805
    24   6 C        3.755    -0.117    22.798     6.808
    25   8 O        1.638    -0.373    20.351     6.089
    26   6 C        2.896    -0.025    28.638     8.774
    27   6 C        3.861    -0.022    20.935     6.507
    28   1 H        0.925     0.039     2.461     2.453
    29   6 C        3.868    -0.000    20.540     6.445
    30   6 C        2.890    -0.063    29.559     8.914
    31   6 C        3.485    -0.013    22.671     7.102
    32   1 H        0.925     0.025     2.655     2.548
    33   1 H        0.925     0.056     2.252     2.347
    34   1 H        0.925     0.041     2.436     2.441
    35   1 H        0.925     0.052     2.293     2.368
    36   1 H        0.925     0.053     2.280     2.361
    37   1 H        0.925     0.045     2.388     2.416
    38   1 H        0.925     0.044     2.400     2.422
    39   1 H        0.925     0.041     2.431     2.438
    40   1 H        0.925     0.053     2.279     2.361
    41   1 H        0.925     0.056     2.247     2.344
    42   1 H        0.925     0.044     2.395     2.420
    43   1 H        0.925     0.054     2.273     2.358
    44   1 H        0.925     0.044     2.400     2.422
    45   1 H        0.925     0.030     2.582     2.513
    46   1 H        0.925     0.054     2.276     2.359
    47   1 H        0.925     0.039     2.462     2.454
    48   1 H        0.925     0.052     2.299     2.371
    49   1 H        0.925     0.051     2.302     2.373
    50   1 H        0.925     0.043     2.404     2.425
    51   1 H        0.925     0.042     2.427     2.436
    52   1 H        0.925     0.042     2.424     2.434
    53   1 H        0.925     0.052     2.298     2.371
    54   1 H        0.925     0.044     2.401     2.423
    55   1 H        0.925     0.039     2.460     2.453
    56   1 H        0.925     0.052     2.300     2.371
    57   1 H        0.925     0.054     2.273     2.358
    58   1 H        0.925     0.037     2.483     2.464
    59   1 H        0.925     0.032     2.560     2.502
    60   1 H        0.925     0.019     2.746     2.591

 Mol. C6AA /au·bohr⁶  :      32412.006370
 Mol. C8AA /au·bohr⁸  :     749237.801215
 Mol. α(0) /au        :        269.947196


Wiberg/Mayer (AO) data.
largest (>0.10) Wiberg bond orders for each atom

 ---------------------------------------------------------------------------
     #   Z sym  total        # sym  WBO       # sym  WBO       # sym  WBO
 ---------------------------------------------------------------------------
     1   6 C    3.994 --     2 C    0.997    34 H    0.984    33 H    0.982
                            35 H    0.982
     2   6 C    3.941 --     1 C    0.997     4 C    0.991     3 O    0.949
                             5 C    0.937
     3   8 O    2.230 --     9 B    1.133     2 C    0.949
     4   6 C    3.994 --     2 C    0.991    38 H    0.984    37 H    0.984
                            36 H    0.983
     5   6 C    3.940 --     6 C    0.997     7 C    0.991     8 O    0.948
                             2 C    0.937
     6   6 C    3.994 --     5 C    0.997    39 H    0.984    41 H    0.982
                            40 H    0.982
     7   6 C    3.995 --     5 C    0.991    42 H    0.984    44 H    0.984
                            43 H    0.982
     8   8 O    2.239 --     9 B    1.144     5 C    0.948
     9   5 B    3.374 --     8 O    1.144     3 O    1.133    10 C    0.983
    10   6 C    3.935 --    11 C    1.118     9 B    0.983    27 C    0.853
                            29 C    0.811
    11   6 C    3.983 --    12 C    1.692    10 C    1.118    45 H    0.965
                            30 C    0.110
    12   6 C    3.977 --    11 C    1.692    13 H    0.969    14 C    0.951
                            31 C    0.235
    13   1 H    0.999 --    12 C    0.969
    14   6 C    3.980 --    16 C    0.993    15 H    0.969    31 C    0.958
                            12 C    0.951
    15   1 H    0.998 --    14 C    0.969
    16   6 C    3.976 --    26 C    1.808    17 B    1.007    14 C    0.993
    17   5 B    3.376 --    25 O    1.124    18 O    1.123    16 C    1.007
    18   8 O    2.229 --    17 B    1.123    19 C    0.954
    19   6 C    3.944 --    20 C    0.997    21 C    0.990    18 O    0.954
                            22 C    0.936
    20   6 C    3.994 --    19 C    0.997    47 H    0.985    46 H    0.983
                            48 H    0.982
    21   6 C    3.994 --    19 C    0.990    51 H    0.985    50 H    0.984
                            49 H    0.983
    22   6 C    3.943 --    24 C    0.996    23 C    0.990    25 O    0.955
                            19 C    0.936
    23   6 C    3.995 --    22 C    0.990    52 H    0.985    54 H    0.984
                            53 H    0.983
    24   6 C    3.994 --    22 C    0.996    55 H    0.985    57 H    0.983
                            56 H    0.982
    25   8 O    2.229 --    17 B    1.124    22 C    0.955
    26   6 C    3.989 --    16 C    1.808    27 C    1.071    58 H    0.964
    27   6 C    3.937 --    26 C    1.071    28 H    0.969    29 C    0.905
                            10 C    0.853
    28   1 H    0.998 --    27 C    0.969
    29   6 C    3.953 --    30 C    1.127    59 H    0.969    27 C    0.905
                            10 C    0.811
    30   6 C    3.978 --    31 C    1.681    29 C    1.127    60 H    0.967
                            11 C    0.110
    31   6 C    3.973 --    30 C    1.681    32 H    0.970    14 C    0.958
                            12 C    0.235
    32   1 H    0.999 --    31 C    0.970
    33   1 H    0.997 --     1 C    0.982
    34   1 H    0.998 --     1 C    0.984
    35   1 H    0.997 --     1 C    0.982
    36   1 H    0.997 --     4 C    0.983
    37   1 H    0.998 --     4 C    0.984
    38   1 H    0.998 --     4 C    0.984
    39   1 H    0.998 --     6 C    0.984
    40   1 H    0.997 --     6 C    0.982
    41   1 H    0.997 --     6 C    0.982
    42   1 H    0.998 --     7 C    0.984
    43   1 H    0.997 --     7 C    0.982
    44   1 H    0.998 --     7 C    0.984
    45   1 H    0.999 --    11 C    0.965
    46   1 H    0.997 --    20 C    0.983
    47   1 H    0.998 --    20 C    0.985
    48   1 H    0.997 --    20 C    0.982
    49   1 H    0.997 --    21 C    0.983
    50   1 H    0.998 --    21 C    0.984
    51   1 H    0.998 --    21 C    0.985
    52   1 H    0.998 --    23 C    0.985
    53   1 H    0.997 --    23 C    0.983
    54   1 H    0.998 --    23 C    0.984
    55   1 H    0.998 --    24 C    0.985
    56   1 H    0.997 --    24 C    0.982
    57   1 H    0.997 --    24 C    0.983
    58   1 H    0.998 --    26 C    0.964
    59   1 H    0.999 --    29 C    0.969
    60   1 H    0.999 --    30 C    0.967
 ---------------------------------------------------------------------------

Topologies differ in total number of bonds
Writing topology from bond orders to xtbtopo.mol

molecular dipole:
                 x           y           z       tot (Debye)
 q only:       -0.179      -0.592      -0.193
   full:       -0.120      -0.662      -0.234       1.810
molecular quadrupole (traceless):
                xx          xy          yy          xz          yz          zz
 q only:      -44.011       9.829      82.025     -25.526      -6.166     -38.013
  q+dip:      -46.882       5.404      89.729     -22.428      -4.143     -42.848
   full:      -47.385       4.347      91.463     -23.550      -5.493     -44.078

           -------------------------------------------------
          |                Geometry Summary                 |
           -------------------------------------------------

      molecular mass/u    :      382.1099696
   center of mass at/Å    :        2.9464117     -35.9343321      21.8320659
  moments of inertia/u·Å² :        0.1174169E+04   0.6821303E+04   0.7137994E+04
rotational constants/cm⁻¹ :        0.1435707E-01   0.2471322E-02   0.2361677E-02

 * 61 selected distances

     #   Z          #   Z                                           value/Å
     1   6 C        2   6 C                                       1.5268661
     2   6 C        3   8 O                                       1.4286491
     2   6 C        4   6 C                                       1.5335127
     5   6 C        6   6 C                                       1.5265118
     5   6 C        7   6 C                                       1.5336053
     5   6 C        8   8 O                                       1.4297980
     3   8 O        9   5 B                                       1.3662803
     8   8 O        9   5 B                                       1.3628329
     9   5 B       10   6 C                                       1.5741896 (max)
    10   6 C       11   6 C                                       1.4586578
    11   6 C       12   6 C                                       1.3499783
    12   6 C       13   1 H                                       1.0853605
    12   6 C       14   6 C                                       1.4844476
    14   6 C       15   1 H                                       1.0882708
    16   6 C       17   5 B                                       1.5565039
    17   5 B       18   8 O                                       1.3696491
    18   8 O       19   6 C                                       1.4267431
    19   6 C       20   6 C                                       1.5270783
    19   6 C       21   6 C                                       1.5342909
    22   6 C       23   6 C                                       1.5341674
    22   6 C       24   6 C                                       1.5271810
    17   5 B       25   8 O                                       1.3684480
    22   6 C       25   8 O                                       1.4260447
    16   6 C       26   6 C                                       1.3363944
    10   6 C       27   6 C                                       1.5265741
    26   6 C       27   6 C                                       1.4604439
    27   6 C       28   1 H                                       1.0830851
    10   6 C       29   6 C                                       1.5047350
    27   6 C       29   6 C                                       1.4985001
    29   6 C       30   6 C                                       1.4501583
    14   6 C       31   6 C                                       1.4817749
    30   6 C       31   6 C                                       1.3509212
    31   6 C       32   1 H                                       1.0854674
     1   6 C       33   1 H                                       1.0872263
     1   6 C       34   1 H                                       1.0864305
     1   6 C       35   1 H                                       1.0851991
     4   6 C       36   1 H                                       1.0876112
     4   6 C       37   1 H                                       1.0870622
     4   6 C       38   1 H                                       1.0858362
     6   6 C       39   1 H                                       1.0866436
     6   6 C       40   1 H                                       1.0850267
     6   6 C       41   1 H                                       1.0870885
     7   6 C       42   1 H                                       1.0857170
     7   6 C       43   1 H                                       1.0874944
     7   6 C       44   1 H                                       1.0871559
    11   6 C       45   1 H                                       1.0812857 (min)
    20   6 C       46   1 H                                       1.0872260
    20   6 C       47   1 H                                       1.0867890
    20   6 C       48   1 H                                       1.0851243
    21   6 C       49   1 H                                       1.0876560
    21   6 C       50   1 H                                       1.0871383
    21   6 C       51   1 H                                       1.0859030
    23   6 C       52   1 H                                       1.0859275
    23   6 C       53   1 H                                       1.0875815
    23   6 C       54   1 H                                       1.0870410
    24   6 C       55   1 H                                       1.0866310
    24   6 C       56   1 H                                       1.0851015
    24   6 C       57   1 H                                       1.0871721
    26   6 C       58   1 H                                       1.0823483
    29   6 C       59   1 H                                       1.0861051
    30   6 C       60   1 H                                       1.0821584

 * 5 distinct bonds (by element types)

   Z      Z             #   av. dist./Å        max./Å        min./Å
   1 H    6 C          32     1.0859958     1.0882708     1.0812857
   5 B    6 C           2     1.5653467     1.5741896     1.5565039
   6 C    6 C          19     1.4813578     1.5342909     1.3363944
   5 B    8 O           4     1.3668025     1.3696491     1.3628329
   6 C    8 O           4     1.4278088     1.4297980     1.4260447


optimized geometry written to: xtbopt.xyz


           -------------------------------------------------
          | TOTAL ENERGY              -82.300694925991 Eh   |
          | GRADIENT NORM               0.000958494633 Eh/α |
          | HOMO-LUMO GAP               2.856432360063 eV   |
           -------------------------------------------------

------------------------------------------------------------------------
 * finished run on 2022/07/09 at 18:33:37.846     
------------------------------------------------------------------------
 total:
 * wall-time:     0 d,  0 h,  0 min,  1.037 sec
 *  cpu-time:     0 d,  0 h,  0 min,  1.037 sec
 * ratio c/w:     1.000 speedup
 SCF:
 * wall-time:     0 d,  0 h,  0 min,  0.067 sec
 *  cpu-time:     0 d,  0 h,  0 min,  0.067 sec
 * ratio c/w:     0.999 speedup
 ANC optimizer:
 * wall-time:     0 d,  0 h,  0 min,  0.958 sec
 *  cpu-time:     0 d,  0 h,  0 min,  0.958 sec
 * ratio c/w:     1.000 speedup

