      -----------------------------------------------------------      
     |                   =====================                   |     
     |                           x T B                           |     
     |                   =====================                   |     
     |                         S. Grimme                         |     
     |          Mulliken Center for Theoretical Chemistry        |     
     |                    University of Bonn                     |     
      -----------------------------------------------------------      

   * xtb version 6.5.0 (homebrew) compiled by 'nhattrup@GPGGRP-SHANNON.CHEME.CMU.EDU' on 

   xtb is free software: you can redistribute it and/or modify it under
   the terms of the GNU Lesser General Public License as published by
   the Free Software Foundation, either version 3 of the License, or
   (at your option) any later version.
   
   xtb is distributed in the hope that it will be useful,
   but WITHOUT ANY WARRANTY; without even the implied warranty of
   MERCHANTABILITY or FITNESS FOR A PARTICULAR PURPOSE.  See the
   GNU Lesser General Public License for more details.
   
   Cite this work as:
   * C. Bannwarth, E. Caldeweyher, S. Ehlert, A. Hansen, P. Pracht,
     J. Seibert, S. Spicher, S. Grimme, WIREs Comput. Mol. Sci., 2020, 11,
     e01493. DOI: 10.1002/wcms.1493
   
   for GFN2-xTB:
   * C. Bannwarth, S. Ehlert and S. Grimme., J. Chem. Theory Comput., 2019,
     15, 1652-1671. DOI: 10.1021/acs.jctc.8b01176
   for GFN1-xTB:
   * S. Grimme, C. Bannwarth, P. Shushkov, J. Chem. Theory Comput., 2017,
     13, 1989-2009. DOI: 10.1021/acs.jctc.7b00118
   for GFN0-xTB:
   * P. Pracht, E. Caldeweyher, S. Ehlert, S. Grimme, ChemRxiv, 2019, preprint.
     DOI: 10.26434/chemrxiv.8326202.v1
   for GFN-FF:
   * S. Spicher and S. Grimme, Angew. Chem. Int. Ed., 2020, 59, 15665-15673.
     DOI: 10.1002/anie.202004239
   
   for ALPB and GBSA implicit solvation:
   * S. Ehlert, M. Stahn, S. Spicher, S. Grimme, J. Chem. Theory Comput.,
     2021, 17, 4250-4261. DOI: 10.1021/acs.jctc.1c00471
   
   for DFT-D4:
   * E. Caldeweyher, C. Bannwarth and S. Grimme, J. Chem. Phys., 2017,
     147, 034112. DOI: 10.1063/1.4993215
   * E. Caldeweyher, S. Ehlert, A. Hansen, H. Neugebauer, S. Spicher,
     C. Bannwarth and S. Grimme, J. Chem. Phys., 2019, 150, 154122.
     DOI: 10.1063/1.5090222
   * E. Caldeweyher, J.-M. Mewes, S. Ehlert and S. Grimme, Phys. Chem. Chem. Phys.
     2020, 22, 8499-8512. DOI: 10.1039/D0CP00502A
   
   for sTDA-xTB:
   * S. Grimme and C. Bannwarth, J. Chem. Phys., 2016, 145, 054103.
     DOI: 10.1063/1.4959605
   
   in the mass-spec context:
   * V. Asgeirsson, C. Bauer and S. Grimme, Chem. Sci., 2017, 8, 4879.
     DOI: 10.1039/c7sc00601b
   * J. Koopman and S. Grimme, ACS Omega 2019, 4, 12, 15120-15133.
     DOI: 10.1021/acsomega.9b02011
   
   for metadynamics refer to:
   * S. Grimme, J. Chem. Theory Comput., 2019, 155, 2847-2862
     DOI: 10.1021/acs.jctc.9b00143
   
   for SPH calculations refer to:
   * S. Spicher and S. Grimme, J. Chem. Theory Comput., 2021, 17, 1701-1714
     DOI: 10.1021/acs.jctc.0c01306
   
   with help from (in alphabetical order)
   P. Atkinson, C. Bannwarth, F. Bohle, G. Brandenburg, E. Caldeweyher
   M. Checinski, S. Dohm, S. Ehlert, S. Ehrlich, I. Gerasimov, C. Hölzer
   A. Katbashev, J. Koopman, C. Lavigne, S. Lehtola, F. März, M. Müller,
   F. Musil, H. Neugebauer, J. Pisarek, C. Plett, P. Pracht, F. Pultar,
   J. Seibert, P. Shushkov, S. Spicher, M. Stahn, M. Steiner, T. Strunk,
   J. Stückrath, T. Rose, and J. Unsleber
   
 * started run on 2022/07/09 at 18:33:30.188     

           -------------------------------------------------
          |                Calculation Setup                |
           -------------------------------------------------

          program call               : /opt/homebrew/bin/xtb bvl_bpin2_scan_4-7_xtb.xyz --chrg 0 --uhf 0 --opt --input xcontrol_bvl_bpin2_scan_4-7_xtb
          coordinate file            : bvl_bpin2_scan_4-7_xtb.xyz
          omp threads                :                     1

   ID    Z sym.   atoms
    1    6 C      1, 2, 4-7, 10-12, 14, 16, 19-24, 26, 27, 29-31
    2    8 O      3, 8, 18, 25
    3    5 B      9, 17
    4    1 H      13, 15, 28, 32-60
constraining bond 12 31 to    1.9444000 Å, actual value:    1.8331401 Å
constraining bond 10 29 to    1.7222000 Å, actual value:    1.8332123 Å

           -------------------------------------------------
          |                 G F N 2 - x T B                 |
           -------------------------------------------------

        Reference                      10.1021/acs.jctc.8b01176
      * Hamiltonian:
        H0-scaling (s, p, d)           1.850000    2.230000    2.230000
        zeta-weighting                 0.500000
      * Dispersion:
        s8                             2.700000
        a1                             0.520000
        a2                             5.000000
        s9                             5.000000
      * Repulsion:
        kExp                           1.500000    1.000000
        rExp                           1.000000
      * Coulomb:
        alpha                          2.000000
        third order                    shell-resolved
        anisotropic                    true
        a3                             3.000000
        a5                             4.000000
        cn-shift                       1.200000
        cn-exp                         4.000000
        max-rad                        5.000000


          ...................................................
          :                      SETUP                      :
          :.................................................:
          :  # basis functions                 144          :
          :  # atomic orbitals                 144          :
          :  # shells                           88          :
          :  # electrons                       150          :
          :  max. iterations                   250          :
          :  Hamiltonian                  GFN2-xTB          :
          :  restarted?                      false          :
          :  GBSA solvation                  false          :
          :  PC potential                    false          :
          :  electronic temp.          300.0000000     K    :
          :  accuracy                    1.0000000          :
          :  -> integral cutoff          0.2500000E+02      :
          :  -> integral neglect         0.1000000E-07      :
          :  -> SCF convergence          0.1000000E-05 Eh   :
          :  -> wf. convergence          0.1000000E-03 e    :
          :  Broyden damping             0.4000000          :
          ...................................................

 iter      E             dE          RMSdq      gap      omega  full diag
   1    -82.9421584 -0.829422E+02  0.466E+00    3.23       0.0  T
   2    -83.3287351 -0.386577E+00  0.286E+00    2.69       1.0  T
   3    -83.3428294 -0.140942E-01  0.137E+00    3.04       1.0  T
   4    -83.3650431 -0.222138E-01  0.403E-01    2.87       1.0  T
   5    -83.3760915 -0.110484E-01  0.144E-01    2.94       1.0  T
   6    -83.3760499  0.415966E-04  0.841E-02    2.94       1.0  T
   7    -83.3762485 -0.198573E-03  0.230E-02    2.93       1.0  T
   8    -83.3762649 -0.164158E-04  0.827E-03    2.93       1.6  T
   9    -83.3762661 -0.116147E-05  0.473E-03    2.93       2.7  T
  10    -83.3762666 -0.500298E-06  0.233E-03    2.93       5.5  T
  11    -83.3762667 -0.148225E-06  0.531E-04    2.93      24.3  T
  12    -83.3762667 -0.952117E-08  0.255E-04    2.93      50.7  T

   *** convergence criteria satisfied after 12 iterations ***

         #    Occupation            Energy/Eh            Energy/eV
      -------------------------------------------------------------
         1        2.0000           -0.6905029             -18.7895
       ...           ...                  ...                  ...
        69        2.0000           -0.4073030             -11.0833
        70        2.0000           -0.3994149             -10.8686
        71        2.0000           -0.3971726             -10.8076
        72        2.0000           -0.3951233             -10.7519
        73        2.0000           -0.3814141             -10.3788
        74        2.0000           -0.3612045              -9.8289
        75        2.0000           -0.3328878              -9.0583 (HOMO)
        76                         -0.2251489              -6.1266 (LUMO)
        77                         -0.2057659              -5.5992
        78                         -0.1717674              -4.6740
        79                         -0.1144368              -3.1140
        80                         -0.0945567              -2.5730
       ...                                ...                  ...
       144                          0.6956613              18.9299
      -------------------------------------------------------------
                  HL-Gap            0.1077390 Eh            2.9317 eV
             Fermi-level           -0.2790184 Eh           -7.5925 eV

 SCC (total)                   0 d,  0 h,  0 min,  0.070 sec
 SCC setup                      ...        0 min,  0.000 sec (  0.336%)
 Dispersion                     ...        0 min,  0.000 sec (  0.601%)
 classical contributions        ...        0 min,  0.000 sec (  0.251%)
 integral evaluation            ...        0 min,  0.006 sec (  8.726%)
 iterations                     ...        0 min,  0.033 sec ( 47.270%)
 molecular gradient             ...        0 min,  0.029 sec ( 42.154%)
 printout                       ...        0 min,  0.000 sec (  0.653%)

         :::::::::::::::::::::::::::::::::::::::::::::::::::::
         ::                     SUMMARY                     ::
         :::::::::::::::::::::::::::::::::::::::::::::::::::::
         :: total energy             -82.122968202248 Eh    ::
         :: gradient norm              1.680070732844 Eh/a0 ::
         :: HOMO-LUMO gap              2.931727039749 eV    ::
         ::.................................................::
         :: SCC energy               -83.376266741449 Eh    ::
         :: -> isotropic ES            0.148118012269 Eh    ::
         :: -> anisotropic ES          0.011259714940 Eh    ::
         :: -> anisotropic XC          0.026204281267 Eh    ::
         :: -> dispersion             -0.060926434535 Eh    ::
         :: repulsion energy           1.076234290441 Eh    ::
         :: add. restraining           0.176428479423 Eh    ::
         :: total charge              -0.000000000000 e     ::
         :::::::::::::::::::::::::::::::::::::::::::::::::::::

      ----------------------------------------------------------- 
     |                   =====================                   |
     |                        A N C O P T                        |
     |                   =====================                   |
     |               Approximate Normal Coordinate               |
     |                Rational Function Optimizer                |
      ----------------------------------------------------------- 

          ...................................................
          :                      SETUP                      :
          :.................................................:
          :   optimization level            normal          :
          :   max. optcycles                   200          :
          :   ANC micro-cycles                  20          :
          :   degrees of freedom               174          :
          :.................................................:
          :   RF solver                   davidson          :
          :   write xtbopt.log                true          :
          :   linear?                        false          :
          :   energy convergence         0.5000000E-05 Eh   :
          :   grad. convergence          0.1000000E-02 Eh/α :
          :   maximium RF displ.         1.0000000          :
          :   Hlow (freq-cutoff)         0.1000000E-01      :
          :   Hmax (freq-cutoff)         5.0000000          :
          :   S6 in model hess.         20.0000000          :
          ...................................................

generating ANC from model Hessian ...
Using Lindh-Hessian (1995)
 Shifting diagonal of input Hessian by   0.20632005830799208     
 Lowest  eigenvalues of input Hessian
    0.010000    0.136408    0.000000    0.000000    0.000000    0.000000
    0.000000    0.000000    0.206437    0.206463    0.206615    0.207990
    0.208197    0.209157    0.209601    0.209669    0.210953    0.211481
 Highest eigenvalues
    1.926321    2.029512    2.127784    2.200760    8.989817    9.052510


........................................................................
.............................. CYCLE    1 ..............................
........................................................................
   1    -83.3762667 -0.833763E+02  0.121E-04    2.93       0.0  T
   2    -83.3762667 -0.741821E-09  0.770E-05    2.93     167.7  T
   3    -83.3762667 -0.271910E-09  0.323E-05    2.93     399.2  T
     SCC iter.                  ...        0 min,  0.008 sec
     gradient                   ...        0 min,  0.028 sec
 * total energy  :   -82.1229682 Eh     change       -0.7157013E-09 Eh
   gradient norm :     1.6800713 Eh/α   predicted     0.0000000E+00 (-100.00%)
   displ. norm   :     0.3106321 α      lambda       -0.5114242E+00
   maximum displ.:     0.2960737 α      in ANC's #174, #173, #128, ...

........................................................................
.............................. CYCLE    2 ..............................
........................................................................
   1    -83.3766234 -0.833766E+02  0.408E-01    3.02       0.0  T
   2    -83.3769842 -0.360810E-03  0.309E-01    3.01       1.0  T
   3    -83.3767107  0.273511E-03  0.167E-01    3.00       1.0  T
   4    -83.3779684 -0.125766E-02  0.373E-02    3.00       1.0  T
   5    -83.3780419 -0.735484E-04  0.844E-03    3.00       1.5  T
   6    -83.3780437 -0.179377E-05  0.444E-03    3.00       2.9  T
   7    -83.3780440 -0.314449E-06  0.120E-03    3.00      10.8  T
   8    -83.3780440 -0.122494E-07  0.440E-04    3.00      29.3  T
   9    -83.3780440 -0.421053E-08  0.175E-04    3.00      73.6  T
     SCC iter.                  ...        0 min,  0.024 sec
     gradient                   ...        0 min,  0.028 sec
 * total energy  :   -82.2598180 Eh     change       -0.1368498E+00 Eh
   gradient norm :     0.8062439 Eh/α   predicted    -0.2831443E+00 ( 106.90%)
   displ. norm   :     0.1040139 α      lambda       -0.8003318E-01
   maximum displ.:     0.0949605 α      in ANC's #174, #173, #170, ...

........................................................................
.............................. CYCLE    3 ..............................
........................................................................
   1    -83.3775357 -0.833775E+02  0.122E-01    2.96       0.0  T
   2    -83.3776325 -0.968109E-04  0.101E-01    2.97       1.0  T
   3    -83.3777763 -0.143768E-03  0.528E-02    2.97       1.0  T
   4    -83.3777975 -0.212861E-04  0.177E-02    2.97       1.0  T
   5    -83.3778139 -0.163472E-04  0.313E-03    2.97       4.1  T
   6    -83.3778143 -0.365484E-06  0.143E-03    2.97       9.0  T
   7    -83.3778143 -0.227381E-07  0.426E-04    2.97      30.3  T
   8    -83.3778143 -0.167458E-08  0.160E-04    2.97      80.6  T
     SCC iter.                  ...        0 min,  0.022 sec
     gradient                   ...        0 min,  0.028 sec
 * total energy  :   -82.3007247 Eh     change       -0.4090675E-01 Eh
   gradient norm :     0.0352713 Eh/α   predicted    -0.4045002E-01 (  -1.12%)
   displ. norm   :     0.0396184 α      lambda       -0.1044019E-02
   maximum displ.:     0.0210040 α      in ANC's #37, #119, #109, ...

........................................................................
.............................. CYCLE    4 ..............................
........................................................................
   1    -83.3782279 -0.833782E+02  0.293E-02    2.97       0.0  T
   2    -83.3782341 -0.611569E-05  0.190E-02    2.97       1.0  T
   3    -83.3782355 -0.147283E-05  0.123E-02    2.97       1.0  T
   4    -83.3782399 -0.438715E-05  0.368E-03    2.97       3.5  T
   5    -83.3782406 -0.639046E-06  0.890E-04    2.97      14.5  T
   6    -83.3782406 -0.376794E-07  0.286E-04    2.97      45.2  T
     SCC iter.                  ...        0 min,  0.017 sec
     gradient                   ...        0 min,  0.028 sec
 * total energy  :   -82.3015546 Eh     change       -0.8298845E-03 Eh
   gradient norm :     0.0208012 Eh/α   predicted    -0.5255587E-03 ( -36.67%)
   displ. norm   :     0.1414062 α      lambda       -0.1311351E-02
   maximum displ.:     0.1127563 α      in ANC's #1, #37, #109, ...

........................................................................
.............................. CYCLE    5 ..............................
........................................................................
   1    -83.3779175 -0.833779E+02  0.858E-02    2.98       0.0  T
   2    -83.3779347 -0.172027E-04  0.520E-02    2.99       1.0  T
   3    -83.3779017  0.329881E-04  0.336E-02    2.99       1.0  T
   4    -83.3779521 -0.503969E-04  0.621E-03    2.99       2.1  T
   5    -83.3779540 -0.194448E-05  0.167E-03    2.99       7.7  T
   6    -83.3779541 -0.102697E-06  0.703E-04    2.99      18.4  T
   7    -83.3779541 -0.683620E-08  0.265E-04    2.99      48.8  T
     SCC iter.                  ...        0 min,  0.019 sec
     gradient                   ...        0 min,  0.028 sec
 * total energy  :   -82.3014641 Eh     change        0.9044240E-04 Eh
   gradient norm :     0.0284695 Eh/α   predicted    -0.6688187E-03 (-839.50%)
   displ. norm   :     0.3141560 α      lambda       -0.3602190E-02
   maximum displ.:     0.2684863 α      in ANC's #1, #37, #109, ...

........................................................................
.............................. CYCLE    6 ..............................
........................................................................
   1    -83.3767838 -0.833768E+02  0.192E-01    2.99       0.0  T
   2    -83.3768500 -0.662314E-04  0.115E-01    2.99       1.0  T
   3    -83.3767016  0.148393E-03  0.712E-02    3.00       1.0  T
   4    -83.3769169 -0.215240E-03  0.102E-02    2.99       1.3  T
   5    -83.3769218 -0.489841E-05  0.330E-03    2.99       3.9  T
   6    -83.3769221 -0.371899E-06  0.155E-03    3.00       8.3  T
   7    -83.3769222 -0.423379E-07  0.461E-04    3.00      28.0  T
   8    -83.3769222 -0.302622E-08  0.133E-04    3.00      97.4  T
     SCC iter.                  ...        0 min,  0.022 sec
     gradient                   ...        0 min,  0.028 sec
 * total energy  :   -82.2985879 Eh     change        0.2876270E-02 Eh
   gradient norm :     0.0791372 Eh/α   predicted    -0.1978813E-02 (-168.80%)
   displ. norm   :     0.1794869 α      lambda       -0.1241400E-01
   maximum displ.:     0.1254589 α      in ANC's #1, #37, #109, ...

........................................................................
.............................. CYCLE    7 ..............................
........................................................................
   1    -83.3791488 -0.833791E+02  0.120E-01    2.99       0.0  T
   2    -83.3791983 -0.495226E-04  0.722E-02    2.98       1.0  T
   3    -83.3791430  0.553276E-04  0.461E-02    2.98       1.0  T
   4    -83.3792354 -0.924059E-04  0.972E-03    2.98       1.3  T
   5    -83.3792400 -0.459669E-05  0.271E-03    2.98       4.8  T
   6    -83.3792403 -0.297183E-06  0.109E-03    2.98      11.9  T
   7    -83.3792403 -0.192361E-07  0.406E-04    2.98      31.8  T
   8    -83.3792403 -0.149113E-08  0.999E-05    2.98     129.2  T
     SCC iter.                  ...        0 min,  0.022 sec
     gradient                   ...        0 min,  0.027 sec
 * total energy  :   -82.3022443 Eh     change       -0.3656385E-02 Eh
   gradient norm :     0.0294129 Eh/α   predicted    -0.3880855E-02 (   6.14%)
   displ. norm   :     0.0340880 α      lambda       -0.8414292E-03
   maximum displ.:     0.0316607 α      in ANC's #1, #37, #173, ...

........................................................................
.............................. CYCLE    8 ..............................
........................................................................
   1    -83.3795581 -0.833796E+02  0.213E-02    2.99       0.0  T
   2    -83.3795592 -0.107754E-05  0.131E-02    2.99       1.0  T
   3    -83.3795578  0.135867E-05  0.834E-03    2.99       1.5  T
   4    -83.3795606 -0.274227E-05  0.139E-03    2.99       9.3  T
   5    -83.3795607 -0.976368E-07  0.366E-04    2.99      35.2  T
   6    -83.3795607 -0.447031E-08  0.167E-04    2.99      77.4  T
     SCC iter.                  ...        0 min,  0.016 sec
     gradient                   ...        0 min,  0.028 sec
 * total energy  :   -82.3023814 Eh     change       -0.1371445E-03 Eh
   gradient norm :     0.0158859 Eh/α   predicted    -0.1560201E-03 (  13.76%)
   displ. norm   :     0.0225135 α      lambda       -0.3004500E-03
   maximum displ.:     0.0174335 α      in ANC's #37, #1, #33, ...

........................................................................
.............................. CYCLE    9 ..............................
........................................................................
   1    -83.3796573 -0.833797E+02  0.109E-02    2.99       0.0  T
   2    -83.3796573 -0.262876E-07  0.646E-03    2.99       2.0  T
   3    -83.3796571  0.194123E-06  0.185E-03    2.99       7.0  T
   4    -83.3796573 -0.218723E-06  0.231E-04    2.99      55.9  T
   5    -83.3796573 -0.144222E-08  0.140E-04    2.99      92.3  T
     SCC iter.                  ...        0 min,  0.014 sec
     gradient                   ...        0 min,  0.029 sec
 * total energy  :   -82.3024471 Eh     change       -0.6573365E-04 Eh
   gradient norm :     0.0046281 Eh/α   predicted    -0.4079446E-04 ( -37.94%)
   displ. norm   :     0.0547680 α      lambda       -0.6598918E-03
   maximum displ.:     0.0437179 α      in ANC's #37, #33, #17, ...

........................................................................
.............................. CYCLE   10 ..............................
........................................................................
   1    -83.3799737 -0.833800E+02  0.260E-02    2.99       0.0  T
   2    -83.3799739 -0.182053E-06  0.154E-02    2.99       1.0  T
   3    -83.3799736  0.337367E-06  0.245E-03    2.99       5.3  T
   4    -83.3799740 -0.404188E-06  0.549E-04    2.99      23.5  T
   5    -83.3799740 -0.818204E-08  0.295E-04    2.99      43.7  T
     SCC iter.                  ...        0 min,  0.014 sec
     gradient                   ...        0 min,  0.028 sec
 * total energy  :   -82.3025426 Eh     change       -0.9549045E-04 Eh
   gradient norm :     0.0120441 Eh/α   predicted    -0.7089888E-04 ( -25.75%)
   displ. norm   :     0.0454418 α      lambda       -0.3838705E-03
   maximum displ.:     0.0351297 α      in ANC's #37, #33, #29, ...

........................................................................
.............................. CYCLE   11 ..............................
........................................................................
   1    -83.3803269 -0.833803E+02  0.211E-02    2.99       0.0  T
   2    -83.3803271 -0.163835E-06  0.126E-02    2.99       1.0  T
   3    -83.3803262  0.828139E-06  0.376E-03    2.99       3.4  T
   4    -83.3803272 -0.949310E-06  0.436E-04    2.99      29.6  T
   5    -83.3803272 -0.408369E-08  0.246E-04    2.99      52.4  T
     SCC iter.                  ...        0 min,  0.014 sec
     gradient                   ...        0 min,  0.028 sec
 * total energy  :   -82.3025870 Eh     change       -0.4439675E-04 Eh
   gradient norm :     0.0085530 Eh/α   predicted    -0.3394944E-04 ( -23.53%)
   displ. norm   :     0.0204410 α      lambda       -0.1455329E-03
   maximum displ.:     0.0131211 α      in ANC's #37, #29, #17, ...

........................................................................
.............................. CYCLE   12 ..............................
........................................................................
   1    -83.3806620 -0.833807E+02  0.907E-03    2.99       0.0  T
   2    -83.3806621 -0.551892E-07  0.547E-03    2.99       2.4  T
   3    -83.3806618  0.299113E-06  0.240E-03    2.99       5.4  T
   4    -83.3806621 -0.354616E-06  0.179E-04    2.99      72.1  T
   5    -83.3806621 -0.571831E-09  0.105E-04    2.99     123.4  T
     SCC iter.                  ...        0 min,  0.019 sec
     gradient                   ...        0 min,  0.028 sec
 * total energy  :   -82.3026015 Eh     change       -0.1445437E-04 Eh
   gradient norm :     0.0022241 Eh/α   predicted    -0.1096390E-04 ( -24.15%)
   displ. norm   :     0.0107977 α      lambda       -0.6916310E-04
   maximum displ.:     0.0038434 α      in ANC's #29, #17, #37, ...

........................................................................
.............................. CYCLE   13 ..............................
........................................................................
   1    -83.3809379 -0.833809E+02  0.408E-03    2.99       0.0  T
   2    -83.3809379 -0.171115E-07  0.246E-03    2.99       5.3  T
   3    -83.3809378  0.542076E-07  0.110E-03    2.99      11.7  T
   4    -83.3809379 -0.651653E-07  0.134E-04    2.99      96.0  T
   5    -83.3809379 -0.551509E-09  0.661E-05    2.99     195.3  T
     SCC iter.                  ...        0 min,  0.014 sec
     gradient                   ...        0 min,  0.028 sec
 * total energy  :   -82.3026082 Eh     change       -0.6742431E-05 Eh
   gradient norm :     0.0021967 Eh/α   predicted    -0.4531621E-05 ( -32.79%)
   displ. norm   :     0.0173954 α      lambda       -0.1059333E-03
   maximum displ.:     0.0065389 α      in ANC's #29, #17, #6, ...

........................................................................
.............................. CYCLE   14 ..............................
........................................................................
   1    -83.3813444 -0.833813E+02  0.606E-03    2.99       0.0  T
   2    -83.3813444 -0.355092E-07  0.361E-03    2.99       3.6  T
   3    -83.3813444  0.726100E-07  0.130E-03    2.99       9.9  T
   4    -83.3813444 -0.821670E-07  0.298E-04    2.99      43.3  T
   5    -83.3813445 -0.387070E-08  0.104E-04    2.99     124.6  T
     SCC iter.                  ...        0 min,  0.014 sec
     gradient                   ...        0 min,  0.028 sec
 * total energy  :   -82.3026171 Eh     change       -0.8898800E-05 Eh
   gradient norm :     0.0046403 Eh/α   predicted    -0.6140412E-05 ( -31.00%)
   displ. norm   :     0.0206276 α      lambda       -0.1112495E-03
   maximum displ.:     0.0079156 α      in ANC's #29, #17, #6, ...

........................................................................
.............................. CYCLE   15 ..............................
........................................................................
   1    -83.3816600 -0.833817E+02  0.663E-03    2.99       0.0  T
   2    -83.3816601 -0.347023E-07  0.395E-03    2.99       3.3  T
   3    -83.3816600  0.116782E-06  0.155E-03    2.99       8.3  T
   4    -83.3816601 -0.130176E-06  0.330E-04    2.99      39.1  T
   5    -83.3816601 -0.519267E-08  0.117E-04    2.99     110.2  T
     SCC iter.                  ...        0 min,  0.014 sec
     gradient                   ...        0 min,  0.028 sec
 * total energy  :   -82.3026256 Eh     change       -0.8429770E-05 Eh
   gradient norm :     0.0043558 Eh/α   predicted    -0.5781792E-05 ( -31.41%)
   displ. norm   :     0.0229288 α      lambda       -0.1144070E-03
   maximum displ.:     0.0089801 α      in ANC's #29, #6, #17, ...

........................................................................
.............................. CYCLE   16 ..............................
........................................................................
   1    -83.3817908 -0.833818E+02  0.684E-03    2.99       0.0  T
   2    -83.3817908 -0.311143E-07  0.408E-03    2.99       3.2  T
   3    -83.3817907  0.158460E-06  0.178E-03    2.99       7.2  T
   4    -83.3817909 -0.182485E-06  0.259E-04    2.99      49.8  T
   5    -83.3817909 -0.270224E-08  0.135E-04    2.99      96.0  T
     SCC iter.                  ...        0 min,  0.014 sec
     gradient                   ...        0 min,  0.028 sec
 * total energy  :   -82.3026331 Eh     change       -0.7586202E-05 Eh
   gradient norm :     0.0018732 Eh/α   predicted    -0.5386813E-05 ( -28.99%)
   displ. norm   :     0.0360495 α      lambda       -0.8038954E-04
   maximum displ.:     0.0147524 α      in ANC's #6, #29, #17, ...

........................................................................
.............................. CYCLE   17 ..............................
........................................................................
   1    -83.3816917 -0.833817E+02  0.102E-02    2.98       0.0  T
   2    -83.3816918 -0.623108E-07  0.613E-03    2.98       2.1  T
   3    -83.3816914  0.347604E-06  0.263E-03    2.98       4.9  T
   4    -83.3816918 -0.404764E-06  0.268E-04    2.98      48.2  T
   5    -83.3816918 -0.151893E-08  0.187E-04    2.98      69.2  T
     SCC iter.                  ...        0 min,  0.014 sec
     gradient                   ...        0 min,  0.028 sec
 * total energy  :   -82.3026391 Eh     change       -0.5956485E-05 Eh
   gradient norm :     0.0030827 Eh/α   predicted    -0.3460740E-05 ( -41.90%)
   displ. norm   :     0.0045948 α      lambda       -0.6098182E-04
   maximum displ.:     0.0019606 α      in ANC's #28, #66, #43, ...

........................................................................
.............................. CYCLE   18 ..............................
........................................................................
   1    -83.3815385 -0.833815E+02  0.263E-03    2.98       0.0  T
   2    -83.3815385 -0.624220E-08  0.157E-03    2.98       8.2  T
   3    -83.3815385  0.257897E-07  0.747E-04    2.98      17.3  T
   4    -83.3815385 -0.290394E-07  0.150E-04    2.98      86.2  T
     SCC iter.                  ...        0 min,  0.011 sec
     gradient                   ...        0 min,  0.028 sec
 * total energy  :   -82.3026433 Eh     change       -0.4221546E-05 Eh
   gradient norm :     0.0025575 Eh/α   predicted    -0.2432888E-05 ( -42.37%)
   displ. norm   :     0.0180271 α      lambda       -0.1894076E-03
   maximum displ.:     0.0077645 α      in ANC's #6, #28, #66, ...

........................................................................
.............................. CYCLE   19 ..............................
........................................................................
   1    -83.3811669 -0.833812E+02  0.811E-03    2.98       0.0  T
   2    -83.3811669 -0.470081E-07  0.485E-03    2.98       2.7  T
   3    -83.3811667  0.227161E-06  0.211E-03    2.98       6.1  T
   4    -83.3811669 -0.252784E-06  0.404E-04    2.98      32.0  T
   5    -83.3811670 -0.785417E-08  0.131E-04    2.98      98.2  T
     SCC iter.                  ...        0 min,  0.014 sec
     gradient                   ...        0 min,  0.028 sec
 * total energy  :   -82.3026510 Eh     change       -0.7728506E-05 Eh
   gradient norm :     0.0009983 Eh/α   predicted    -0.6541472E-05 ( -15.36%)
   displ. norm   :     0.0177070 α      lambda       -0.4547731E-04
   maximum displ.:     0.0091935 α      in ANC's #6, #29, #11, ...

........................................................................
.............................. CYCLE   20 ..............................
........................................................................
   1    -83.3811691 -0.833812E+02  0.518E-03    2.98       0.0  T
   2    -83.3811691 -0.757514E-08  0.312E-03    2.98       4.1  T
   3    -83.3811691  0.303777E-07  0.741E-04    2.98      17.4  T
   4    -83.3811691 -0.341551E-07  0.110E-04    2.98     117.5  T
     SCC iter.                  ...        0 min,  0.011 sec
     gradient                   ...        0 min,  0.028 sec
 * total energy  :   -82.3026543 Eh     change       -0.3281286E-05 Eh
   gradient norm :     0.0011614 Eh/α   predicted    -0.1470069E-05 ( -55.20%)
   displ. norm   :     0.0274061 α      lambda       -0.7596705E-04
   maximum displ.:     0.0148014 α      in ANC's #6, #11, #10, ...
 * RMSD in coord.:     0.0581842 α      energy gain  -0.1796861E+00 Eh

generating ANC from model Hessian ...
Using Lindh-Hessian (1995)
 Shifting diagonal of input Hessian by    9.8903653743728642E-003
 Lowest  eigenvalues of input Hessian
    0.000000    0.000000    0.000000    0.000000    0.000000    0.000000
    0.010000    0.010031    0.010114    0.010549    0.011119    0.011808
    0.012417    0.013192    0.013228    0.014286    0.014659    0.015129
 Highest eigenvalues
    1.728604    1.851438    1.900075    1.933006    8.770967    8.934988


........................................................................
.............................. CYCLE   21 ..............................
........................................................................
   1    -83.3814388 -0.833814E+02  0.750E-03    2.98       0.0  T
   2    -83.3814388 -0.237179E-07  0.453E-03    2.98       2.9  T
   3    -83.3814387  0.932520E-07  0.133E-03    2.98       9.7  T
   4    -83.3814388 -0.101708E-06  0.273E-04    2.98      47.3  T
   5    -83.3814388 -0.275628E-08  0.108E-04    2.98     119.5  T
     SCC iter.                  ...        0 min,  0.014 sec
     gradient                   ...        0 min,  0.028 sec
 * total energy  :   -82.3026586 Eh     change       -0.4309273E-05 Eh
   gradient norm :     0.0010127 Eh/α   predicted     0.0000000E+00 (-100.00%)
   displ. norm   :     0.0327563 α      lambda       -0.1326954E-05
   maximum displ.:     0.0147446 α      in ANC's #6, #28, #5, ...

........................................................................
.............................. CYCLE   22 ..............................
........................................................................
   1    -83.3815747 -0.833816E+02  0.914E-03    2.99       0.0  T
   2    -83.3815748 -0.176607E-07  0.544E-03    2.99       2.4  T
   3    -83.3815747  0.408526E-07  0.871E-04    2.99      14.8  T
   4    -83.3815748 -0.449998E-07  0.256E-04    2.99      50.4  T
     SCC iter.                  ...        0 min,  0.011 sec
     gradient                   ...        0 min,  0.027 sec
 * total energy  :   -82.3026676 Eh     change       -0.8922809E-05 Eh
   gradient norm :     0.0013948 Eh/α   predicted    -0.4249319E-05 ( -52.38%)
   displ. norm   :     0.0588289 α      lambda       -0.8007886E-05
   maximum displ.:     0.0299503 α      in ANC's #6, #5, #1, ...

........................................................................
.............................. CYCLE   23 ..............................
........................................................................
   1    -83.3816999 -0.833817E+02  0.105E-02    2.99       0.0  T
   2    -83.3816999 -0.210354E-07  0.626E-03    2.99       2.1  T
   3    -83.3816999  0.904883E-07  0.135E-03    2.99       9.6  T
   4    -83.3817000 -0.990428E-07  0.307E-04    2.99      42.0  T
   5    -83.3817000 -0.306433E-08  0.147E-04    2.99      88.1  T
     SCC iter.                  ...        0 min,  0.013 sec
     gradient                   ...        0 min,  0.027 sec
 * total energy  :   -82.3026750 Eh     change       -0.7448395E-05 Eh
   gradient norm :     0.0027610 Eh/α   predicted    -0.4014817E-05 ( -46.10%)
   displ. norm   :     0.0460331 α      lambda       -0.6968952E-05
   maximum displ.:     0.0227788 α      in ANC's #6, #5, #1, ...

........................................................................
.............................. CYCLE   24 ..............................
........................................................................
   1    -83.3816936 -0.833817E+02  0.597E-03    2.99       0.0  T
   2    -83.3816937 -0.678661E-08  0.359E-03    2.99       3.6  T
   3    -83.3816936  0.568757E-07  0.101E-03    2.99      12.8  T
   4    -83.3816937 -0.622869E-07  0.181E-04    2.99      71.1  T
   5    -83.3816937 -0.845844E-09  0.965E-05    2.99     133.7  T
     SCC iter.                  ...        0 min,  0.013 sec
     gradient                   ...        0 min,  0.027 sec
 * total energy  :   -82.3026804 Eh     change       -0.5342335E-05 Eh
   gradient norm :     0.0009072 Eh/α   predicted    -0.3497866E-05 ( -34.53%)
   displ. norm   :     0.1079223 α      lambda       -0.8581448E-05
   maximum displ.:     0.0503093 α      in ANC's #5, #6, #1, ...

........................................................................
.............................. CYCLE   25 ..............................
........................................................................
   1    -83.3815479 -0.833815E+02  0.131E-02    2.98       0.0  T
   2    -83.3815480 -0.313637E-07  0.788E-03    2.98       1.6  T
   3    -83.3815476  0.402884E-06  0.267E-03    2.98       4.8  T
   4    -83.3815480 -0.442475E-06  0.379E-04    2.98      34.0  T
   5    -83.3815480 -0.199097E-08  0.226E-04    2.98      57.2  T
     SCC iter.                  ...        0 min,  0.013 sec
     gradient                   ...        0 min,  0.027 sec
 * total energy  :   -82.3026895 Eh     change       -0.9119056E-05 Eh
   gradient norm :     0.0024233 Eh/α   predicted    -0.4313906E-05 ( -52.69%)
   displ. norm   :     0.0602861 α      lambda       -0.6099339E-05
   maximum displ.:     0.0288443 α      in ANC's #1, #5, #6, ...

........................................................................
.............................. CYCLE   26 ..............................
........................................................................
   1    -83.3814810 -0.833815E+02  0.745E-03    2.98       0.0  T
   2    -83.3814810 -0.160392E-07  0.449E-03    2.98       2.9  T
   3    -83.3814809  0.136122E-06  0.155E-03    2.98       8.3  T
   4    -83.3814810 -0.150257E-06  0.252E-04    2.98      51.2  T
   5    -83.3814810 -0.161214E-08  0.140E-04    2.98      92.5  T
     SCC iter.                  ...        0 min,  0.013 sec
     gradient                   ...        0 min,  0.027 sec
 * total energy  :   -82.3026944 Eh     change       -0.4965596E-05 Eh
   gradient norm :     0.0011517 Eh/α   predicted    -0.3083344E-05 ( -37.91%)
   displ. norm   :     0.1156167 α      lambda       -0.6331116E-05
   maximum displ.:     0.0584071 α      in ANC's #1, #5, #3, ...

........................................................................
.............................. CYCLE   27 ..............................
........................................................................
   1    -83.3813979 -0.833814E+02  0.139E-02    2.98       0.0  T
   2    -83.3813979 -0.724089E-07  0.838E-03    2.98       1.5  T
   3    -83.3813975  0.466562E-06  0.288E-03    2.98       4.5  T
   4    -83.3813980 -0.516460E-06  0.515E-04    2.98      25.1  T
   5    -83.3813980 -0.855268E-08  0.261E-04    2.98      49.4  T
     SCC iter.                  ...        0 min,  0.013 sec
     gradient                   ...        0 min,  0.027 sec
 * total energy  :   -82.3026997 Eh     change       -0.5289554E-05 Eh
   gradient norm :     0.0011325 Eh/α   predicted    -0.3185378E-05 ( -39.78%)
   displ. norm   :     0.1153873 α      lambda        0.5340694E-05
   maximum displ.:     0.0582777 α      in ANC's #1, #5, #3, ...

........................................................................
.............................. CYCLE   28 ..............................
........................................................................
   1    -83.3812279 -0.833812E+02  0.139E-02    2.98       0.0  T
   2    -83.3812279 -0.741802E-07  0.837E-03    2.98       1.5  T
   3    -83.3812275  0.453777E-06  0.284E-03    2.98       4.6  T
   4    -83.3812280 -0.503306E-06  0.517E-04    2.98      25.0  T
   5    -83.3812280 -0.848900E-08  0.266E-04    2.98      48.6  T
     SCC iter.                  ...        0 min,  0.013 sec
     gradient                   ...        0 min,  0.027 sec
 * total energy  :   -82.3026965 Eh     change        0.3261109E-05 Eh
   gradient norm :     0.0034865 Eh/α   predicted     0.2686130E-05 ( -17.63%)
   displ. norm   :     0.0543611 α      lambda       -0.6296085E-05
   maximum displ.:     0.0252168 α      in ANC's #5, #1, #6, ...

........................................................................
.............................. CYCLE   29 ..............................
........................................................................
   1    -83.3813975 -0.833814E+02  0.722E-03    2.98       0.0  T
   2    -83.3813975 -0.193228E-07  0.435E-03    2.98       3.0  T
   3    -83.3813974  0.121970E-06  0.150E-03    2.98       8.6  T
   4    -83.3813975 -0.133499E-06  0.265E-04    2.98      48.8  T
   5    -83.3813975 -0.255837E-08  0.120E-04    2.98     107.8  T
     SCC iter.                  ...        0 min,  0.013 sec
     gradient                   ...        0 min,  0.027 sec
 * total energy  :   -82.3027012 Eh     change       -0.4700620E-05 Eh
   gradient norm :     0.0016015 Eh/α   predicted    -0.3158134E-05 ( -32.81%)
   displ. norm   :     0.0435106 α      lambda       -0.4187335E-05
   maximum displ.:     0.0263717 α      in ANC's #6, #5, #9, ...

........................................................................
.............................. CYCLE   30 ..............................
........................................................................
   1    -83.3815919 -0.833816E+02  0.783E-03    2.98       0.0  T
   2    -83.3815919 -0.245474E-07  0.471E-03    2.98       2.7  T
   3    -83.3815918  0.102316E-06  0.138E-03    2.98       9.4  T
   4    -83.3815919 -0.111241E-06  0.293E-04    2.98      44.0  T
   5    -83.3815919 -0.345504E-08  0.121E-04    2.98     106.6  T
     SCC iter.                  ...        0 min,  0.013 sec
     gradient                   ...        0 min,  0.027 sec
 * total energy  :   -82.3027049 Eh     change       -0.3734809E-05 Eh
   gradient norm :     0.0008488 Eh/α   predicted    -0.2095796E-05 ( -43.88%)
   displ. norm   :     0.0309614 α      lambda       -0.1782713E-05
   maximum displ.:     0.0176851 α      in ANC's #1, #2, #3, ...

   *** GEOMETRY OPTIMIZATION CONVERGED AFTER 30 ITERATIONS ***

------------------------------------------------------------------------
 total energy gain   :        -0.1797367 Eh     -112.7865 kcal/mol
 total RMSD          :         0.0873827 a0        0.0462 Å
 total power (kW/mol):       -15.7299544 (step) -301.8314 (real)
------------------------------------------------------------------------

 ANCopt (total)                0 d,  0 h,  0 min,  1.563 sec
 optimizer setup                ...        0 min,  0.000 sec (  0.007%)
 model hessian                  ...        0 min,  0.065 sec (  4.170%)
 ANC generation                 ...        0 min,  0.005 sec (  0.344%)
 coordinate transformation      ...        0 min,  0.000 sec (  0.028%)
 single point calculation       ...        0 min,  1.481 sec ( 94.736%)
 optimization log               ...        0 min,  0.006 sec (  0.382%)
 hessian update                 ...        0 min,  0.001 sec (  0.043%)
 rational function              ...        0 min,  0.003 sec (  0.213%)

================
 final structure:
================
60
 xtb: 6.5.0 (homebrew)
C            3.47802848048906      -37.74120675003533       15.89413547889127
C            3.72709350979398      -38.12735428618232       17.35000252040679
O            3.26394834731236      -37.08339314371942       18.20677575442539
C            2.90147505139589      -39.37516520620360       17.68775884376619
C            5.24047426048818      -38.26941734510883       17.75032096956686
C            5.75121256724429      -39.70547321306736       17.83773784156660
C            6.17605866242059      -37.45721637707681       16.84636027970638
O            5.28937134943618      -37.66818467362097       19.04542431615935
B            4.15939079646071      -36.92561396377662       19.22957961179415
C            3.90151230566140      -36.00770401333479       20.46630527325532
C            4.93216969360724      -35.91361399301960       21.45054056943624
C            4.95325639327092      -35.08456104205234       22.52909548112350
H            5.88184013439235      -35.01909111098701       23.08351727193619
C            3.81508736088656      -34.30647440454292       23.09393700062257
H            4.04540677188804      -33.91636678482457       24.08358861260911
C            2.44666920773231      -34.91650856957469       23.12167719007435
B            1.69534028429194      -34.91479327571854       24.48776231128392
O            2.20549381414756      -34.37397528535549       25.63656436248154
C            1.34534948563026      -34.70977769268017       26.72388705253168
C            1.20195998939018      -33.50588082752743       27.65218362497911
C            2.02270984907920      -35.85502608967215       27.48753959168664
C            0.02033586942294      -35.15476991675288       26.00442954602890
C           -1.00217921813140      -34.01788674277135       25.88101397973891
C           -0.66337343865388      -36.37729438482594       26.61276803214539
O            0.45866210484650      -35.46435453899542       24.68203547137425
C            1.88671812042974      -35.47544126136373       22.04757125991796
C            2.46325900029504      -35.58071689944258       20.69809279265073
H            1.78701315951380      -36.06852232339633       20.00274495607150
C            3.23505795382424      -34.47553063583925       20.05573412714654
C            3.85252191009873      -33.38041522314056       20.71032154457944
C            4.21613812158953      -33.35529653810047       22.02341330433346
H            4.82390124472180      -32.52043986635462       22.35127403705019
H            2.40579831921381      -37.68137003647510       15.72450942084587
H            3.89768707206943      -38.49210097802955       15.23028421349627
H            3.90938381681953      -36.77243157416561       15.66404260193297
H            1.84905126633211      -39.14243016828354       17.54178567631723
H            3.04338770565929      -39.64795293492778       18.73055561020572
H            3.17081566698675      -40.21007176979794       17.04810774981622
H            5.63530799569167      -40.20444380414867       16.87942965009536
H            5.22345109999053      -40.26327218764748       18.60435877311669
H            6.80591282845924      -39.68827201756665       18.10058034762158
H            6.22305512459786      -37.88186135735451       15.84810276127177
H            7.17195544184052      -37.46730737225410       17.28318997608604
H            5.84449442674621      -36.42329564044804       16.79223783796766
H            5.85951185191028      -36.39547875964406       21.16872780179390
H            2.16667563956019      -33.29517126304583       28.10717487306289
H            0.48244970412173      -33.72097230875701       28.43759675253820
H            0.88854773860691      -32.62292231669026       27.10473116175472
H            3.00508638078160      -35.51965108348925       27.81233566431903
H            2.16064544824882      -36.71208375055254       26.83310727714736
H            1.44235806436439      -36.14498422784291       28.35822389355397
H           -1.41416249537969      -33.75268812767114       26.85007365305376
H           -1.80898178509454      -34.34921377077245       25.23135988229399
H           -0.54122227755197      -33.14578758729377       25.42424130705025
H           -0.92558111565504      -36.18476658619736       27.64961359437134
H           -0.02458288732042      -37.25260598870200       26.55597958351965
H           -1.57150530391973      -36.58688083335913       26.05307223843094
H            0.90130211658088      -35.90767202139756       22.16046284808783
H            3.08666500423572      -34.37752845926438       18.98923783498275
H            4.26429000912818      -32.61632669515646       20.06252400592637

 Bond Distances (Angstroems)
 ---------------------------
C1-C2=1.5267         C1-H33=1.0872        C1-H34=1.0866        C1-H35=1.0851        C2-C1=1.5267         C2-O3=1.4277         
C2-C4=1.5339         C2-C5=1.5719         O3-C2=1.4277         O3-B9=1.3685         C4-C2=1.5339         C4-H36=1.0877        
C4-H37=1.0872        C4-H38=1.0857        C5-C2=1.5719         C5-C6=1.5267         C5-C7=1.5337         C5-O8=1.4287         
C6-C5=1.5267         C6-H39=1.0866        C6-H40=1.0851        C6-H41=1.0871        C7-C5=1.5337         C7-H42=1.0858        
C7-H43=1.0875        C7-H44=1.0871        O8-C5=1.4287         O8-B9=1.3646         B9-O3=1.3685         B9-O8=1.3646         
B9-C10=1.5616        C10-B9=1.5616        C10-C11=1.4282       C10-C27=1.5181       C10-C29=1.7205       C11-C10=1.4282       
C11-C12=1.3605       C11-H45=1.0824       C12-C11=1.3605       C12-H13=1.0835       C12-C14=1.4899       C12-C31=1.9466       
H13-C12=1.0835       C14-C12=1.4899       C14-H15=1.0884       C14-C16=1.4985       C14-C31=1.4871       H15-C14=1.0884       
C16-C14=1.4985       C16-B17=1.5591       C16-C26=1.3340       B17-C16=1.5591       B17-O18=1.3684       B17-O25=1.3672       
O18-B17=1.3684       O18-C19=1.4265       C19-O18=1.4265       C19-C20=1.5270       C19-C21=1.5341       C19-C22=1.5720       
C20-C19=1.5270       C20-H46=1.0872       C20-H47=1.0867       C20-H48=1.0851       C21-C19=1.5341       C21-H49=1.0877       
C21-H50=1.0871       C21-H51=1.0858       C22-C19=1.5720       C22-C23=1.5340       C22-C24=1.5271       C22-O25=1.4271       
C23-C22=1.5340       C23-H52=1.0859       C23-H53=1.0875       C23-H54=1.0871       C24-C22=1.5271       C24-H55=1.0867       
C24-H56=1.0851       C24-H57=1.0871       O25-B17=1.3672       O25-C22=1.4271       C26-C16=1.3340       C26-C27=1.4712       
C26-H58=1.0819       C27-C10=1.5181       C27-C26=1.4712       C27-H28=1.0857       C27-C29=1.4932       H28-C27=1.0857       
C29-C10=1.7205       C29-C27=1.4932       C29-C30=1.4174       C29-H59=1.0812       C30-C29=1.4174       C30-C31=1.3627       
C30-H60=1.0831       C31-C12=1.9466       C31-C14=1.4871       C31-C30=1.3627       C31-H32=1.0834       H32-C31=1.0834       
H33-C1=1.0872        H34-C1=1.0866        H35-C1=1.0851        H36-C4=1.0877        H37-C4=1.0872        H38-C4=1.0857        
H39-C6=1.0866        H40-C6=1.0851        H41-C6=1.0871        H42-C7=1.0858        H43-C7=1.0875        H44-C7=1.0871        
H45-C11=1.0824       H46-C20=1.0872       H47-C20=1.0867       H48-C20=1.0851       H49-C21=1.0877       H50-C21=1.0871       
H51-C21=1.0858       H52-C23=1.0859       H53-C23=1.0875       H54-C23=1.0871       H55-C24=1.0867       H56-C24=1.0851       
H57-C24=1.0871       H58-C26=1.0819       H59-C29=1.0812       H60-C30=1.0831       
 C  H  Rav=1.0859 sigma=0.0018  Rmin=1.0812  Rmax=1.0884    32
 C  B  Rav=1.5603 sigma=0.0013  Rmin=1.5591  Rmax=1.5616     2
 C  C  Rav=1.5181 sigma=0.1212  Rmin=1.3340  Rmax=1.9466    23
 O  B  Rav=1.3672 sigma=0.0016  Rmin=1.3646  Rmax=1.3685     4
 O  C  Rav=1.4275 sigma=0.0008  Rmin=1.4265  Rmax=1.4287     4

 selected bond angles (degree)
 --------------------
H33-C1-C2=108.88               H34-C1-C2=110.17               H34-C1-H33=108.88              H35-C1-C2=111.29               
H35-C1-H33=108.05              H35-C1-H34=109.50              O3-C2-C1=109.54                C4-C2-C1=109.14                
C4-C2-O3=106.74                C5-C2-C1=115.01                C5-C2-O3=103.04                C5-C2-C4=112.87                
B9-O3-C2=108.70                H36-C4-C2=108.49               H37-C4-C2=110.19               H37-C4-H36=107.98              
H38-C4-C2=111.24               H38-C4-H36=109.00              H38-C4-H37=109.86              C6-C5-C2=114.94                
C7-C5-C2=112.91                C7-C5-C6=109.14                O8-C5-C2=103.05                O8-C5-C6=109.42                
O8-C5-C7=106.89                H39-C6-C5=110.23               H40-C6-C5=111.18               H40-C6-H39=109.58              
H41-C6-C5=108.88               H41-C6-H39=108.90              H41-C6-H40=108.01              H42-C7-C5=111.17               
H43-C7-C5=108.48               H43-C7-H42=109.03              H44-C7-C5=110.30               H44-C7-H42=109.84              
H44-C7-H43=107.95              B9-O8-C5=108.84                O8-B9-O3=112.22                C10-B9-O3=123.48               
C10-B9-O8=124.30               C11-C10-B9=117.73              C27-C10-B9=116.28              C27-C10-C11=124.05             
C29-C10-B9=113.48              C29-C10-C11=112.66             C29-C10-C27= 54.48             

 selected dihedral angles (degree)
 ---------------------------------
O3-C2-C1-H33=294.85           O3-C2-C1-H34=175.51           O3-C2-C1-H35= 53.85           C4-C2-C1-H33= 51.39           
C4-C2-C1-H34=292.05           C4-C2-C1-H35=170.38           C5-C2-C1-H33=179.40           C5-C2-C1-H34= 60.06           
C5-C2-C1-H35=298.40           B9-O3-C2-C1=220.07            B9-O3-C2-C4=102.03            B9-O3-C2-C5=342.94            
H36-C4-C2-C1=299.71           H36-C4-C2-O3= 58.01           H36-C4-C2-C5=170.50           H37-C4-C2-C1=181.69           
H37-C4-C2-O3=299.99           H37-C4-C2-C5= 52.48           H38-C4-C2-C1= 59.59           H38-C4-C2-O3=177.89           
H38-C4-C2-C5=290.38           C6-C5-C2-C1=258.14            C6-C5-C2-O3=139.01            C6-C5-C2-C4= 24.27            
C7-C5-C2-C1= 24.24            C7-C5-C2-O3=265.11            C7-C5-C2-C4=150.36            O8-C5-C2-C1=139.18            
O8-C5-C2-O3= 20.06            O8-C5-C2-C4=265.31            H39-C6-C5-C2= 59.52           H39-C6-C5-C7=291.50           
H39-C6-C5-O8=174.86           H40-C6-C5-C2=297.79           H40-C6-C5-C7=169.78           H40-C6-C5-O8= 53.13           
H41-C6-C5-C2=178.92           H41-C6-C5-C7= 50.90           H41-C6-C5-O8=294.26           H42-C7-C5-C2=290.28           
H42-C7-C5-C6= 59.43           H42-C7-C5-O8=177.67           H43-C7-C5-C2=170.41           H43-C7-C5-C6=299.56           
H43-C7-C5-O8= 57.80           H44-C7-C5-C2= 52.38           H44-C7-C5-C6=181.52           H44-C7-C5-O8=299.76           
B9-O8-C5-C2=343.72            B9-O8-C5-C6=220.99            B9-O8-C5-C7=102.93            O8-B9-O3-C2=  7.82            
C10-B9-O3-C2=188.30           O3-B9-O8-C5=  6.44            C10-B9-O8-C5=185.96           C11-C10-B9-O3=181.18          
C11-C10-B9-O8=  1.72          C27-C10-B9-O3= 16.38          C27-C10-B9-O8=196.92          C29-C10-B9-O3=315.85          
C29-C10-B9-O8=136.39          
           -------------------------------------------------
          |                Final Singlepoint                |
           -------------------------------------------------

          ...................................................
          :                      SETUP                      :
          :.................................................:
          :  # basis functions                 144          :
          :  # atomic orbitals                 144          :
          :  # shells                           88          :
          :  # electrons                       150          :
          :  max. iterations                   250          :
          :  Hamiltonian                  GFN2-xTB          :
          :  restarted?                      false          :
          :  GBSA solvation                  false          :
          :  PC potential                    false          :
          :  electronic temp.          300.0000000     K    :
          :  accuracy                    1.0000000          :
          :  -> integral cutoff          0.2500000E+02      :
          :  -> integral neglect         0.1000000E-07      :
          :  -> SCF convergence          0.1000000E-05 Eh   :
          :  -> wf. convergence          0.1000000E-03 e    :
          :  Broyden damping             0.4000000          :
          ...................................................

 iter      E             dE          RMSdq      gap      omega  full diag
   1    -83.3815919 -0.833816E+02  0.602E-05    2.98       0.0  T
   2    -83.3815919 -0.321876E-10  0.411E-05    2.98     314.4  T
   3    -83.3815919 -0.295017E-10  0.265E-05    2.98     487.3  T

   *** convergence criteria satisfied after 3 iterations ***

         #    Occupation            Energy/Eh            Energy/eV
      -------------------------------------------------------------
         1        2.0000           -0.6918831             -18.8271
       ...           ...                  ...                  ...
        69        2.0000           -0.4063530             -11.0574
        70        2.0000           -0.4003974             -10.8954
        71        2.0000           -0.3973338             -10.8120
        72        2.0000           -0.3952680             -10.7558
        73        2.0000           -0.3811318             -10.3711
        74        2.0000           -0.3612584              -9.8303
        75        2.0000           -0.3344365              -9.1005 (HOMO)
        76                         -0.2248710              -6.1191 (LUMO)
        77                         -0.2018947              -5.4938
        78                         -0.1693726              -4.6089
        79                         -0.1275786              -3.4716
        80                         -0.0957384              -2.6052
       ...                                ...                  ...
       144                          0.6946552              18.9025
      -------------------------------------------------------------
                  HL-Gap            0.1095654 Eh            2.9814 eV
             Fermi-level           -0.2796537 Eh           -7.6098 eV

 SCC (total)                   0 d,  0 h,  0 min,  0.041 sec
 SCC setup                      ...        0 min,  0.000 sec (  0.521%)
 Dispersion                     ...        0 min,  0.000 sec (  0.888%)
 classical contributions        ...        0 min,  0.000 sec (  0.403%)
 integral evaluation            ...        0 min,  0.006 sec ( 14.029%)
 iterations                     ...        0 min,  0.008 sec ( 19.351%)
 molecular gradient             ...        0 min,  0.027 sec ( 64.024%)
 printout                       ...        0 min,  0.000 sec (  0.775%)

         :::::::::::::::::::::::::::::::::::::::::::::::::::::
         ::                     SUMMARY                     ::
         :::::::::::::::::::::::::::::::::::::::::::::::::::::
         :: total energy             -82.302704899250 Eh    ::
         :: gradient norm              0.000848225121 Eh/a0 ::
         :: HOMO-LUMO gap              2.981426797486 eV    ::
         ::.................................................::
         :: SCC energy               -83.381591944226 Eh    ::
         :: -> isotropic ES            0.148290162844 Eh    ::
         :: -> anisotropic ES          0.011048550012 Eh    ::
         :: -> anisotropic XC          0.026307589719 Eh    ::
         :: -> dispersion             -0.061216801698 Eh    ::
         :: repulsion energy           1.078195922717 Eh    ::
         :: add. restraining           0.000055381951 Eh    ::
         :: total charge              -0.000000000000 e     ::
         :::::::::::::::::::::::::::::::::::::::::::::::::::::

           -------------------------------------------------
          |                Property Printout                |
           -------------------------------------------------

    * Orbital Energies and Occupations

         #    Occupation            Energy/Eh            Energy/eV
      -------------------------------------------------------------
         1        2.0000           -0.6918831             -18.8271
       ...           ...                  ...                  ...
        63        2.0000           -0.4357026             -11.8561
        64        2.0000           -0.4344681             -11.8225
        65        2.0000           -0.4298073             -11.6957
        66        2.0000           -0.4229939             -11.5103
        67        2.0000           -0.4189143             -11.3992
        68        2.0000           -0.4138263             -11.2608
        69        2.0000           -0.4063530             -11.0574
        70        2.0000           -0.4003974             -10.8954
        71        2.0000           -0.3973338             -10.8120
        72        2.0000           -0.3952680             -10.7558
        73        2.0000           -0.3811318             -10.3711
        74        2.0000           -0.3612584              -9.8303
        75        2.0000           -0.3344365              -9.1005 (HOMO)
        76                         -0.2248710              -6.1191 (LUMO)
        77                         -0.2018947              -5.4938
        78                         -0.1693726              -4.6089
        79                         -0.1275786              -3.4716
        80                         -0.0957384              -2.6052
        81                         -0.0172322              -0.4689
        82                          0.0049266               0.1341
        83                          0.0104754               0.2850
        84                          0.0256170               0.6971
        85                          0.0298899               0.8133
        86                          0.0544873               1.4827
       ...                                ...                  ...
       144                          0.6946552              18.9025
      -------------------------------------------------------------
                  HL-Gap            0.1095654 Eh            2.9814 eV
             Fermi-level           -0.2796537 Eh           -7.6098 eV

     #   Z          covCN         q      C6AA      α(0)
     1   6 C        3.755    -0.117    22.799     6.808
     2   6 C        3.860     0.130    18.443     6.107
     3   8 O        1.638    -0.378    20.428     6.101
     4   6 C        3.755    -0.116    22.785     6.806
     5   6 C        3.860     0.129    18.449     6.108
     6   6 C        3.755    -0.118    22.814     6.810
     7   6 C        3.755    -0.116    22.777     6.805
     8   8 O        1.638    -0.371    20.303     6.082
     9   5 B        2.659     0.439    15.481     6.624
    10   6 C        3.775    -0.062    21.721     6.641
    11   6 C        2.891    -0.058    29.449     8.897
    12   6 C        3.488    -0.018    22.731     7.104
    13   1 H        0.925     0.026     2.645     2.543
    14   6 C        3.866    -0.016    20.826     6.489
    15   1 H        0.925     0.044     2.393     2.419
    16   6 C        2.864    -0.084    30.094     8.992
    17   5 B        2.662     0.432    15.558     6.639
    18   8 O        1.638    -0.372    20.325     6.086
    19   6 C        3.860     0.129    18.454     6.109
    20   6 C        3.755    -0.117    22.796     6.808
    21   6 C        3.755    -0.116    22.775     6.805
    22   6 C        3.860     0.129    18.454     6.109
    23   6 C        3.755    -0.116    22.782     6.806
    24   6 C        3.755    -0.117    22.803     6.809
    25   8 O        1.638    -0.372    20.315     6.084
    26   6 C        2.896    -0.026    28.658     8.777
    27   6 C        3.862    -0.013    20.772     6.481
    28   1 H        0.925     0.042     2.417     2.431
    29   6 C        3.803    -0.009    20.741     6.484
    30   6 C        2.888    -0.060    29.492     8.903
    31   6 C        3.490    -0.015    22.646     7.086
    32   1 H        0.925     0.026     2.637     2.540
    33   1 H        0.925     0.055     2.260     2.351
    34   1 H        0.925     0.040     2.445     2.445
    35   1 H        0.925     0.052     2.298     2.371
    36   1 H        0.925     0.052     2.289     2.366
    37   1 H        0.925     0.044     2.395     2.420
    38   1 H        0.925     0.043     2.409     2.427
    39   1 H        0.925     0.041     2.440     2.443
    40   1 H        0.925     0.053     2.284     2.363
    41   1 H        0.925     0.055     2.255     2.348
    42   1 H        0.925     0.043     2.405     2.425
    43   1 H        0.925     0.053     2.282     2.362
    44   1 H        0.925     0.043     2.404     2.425
    45   1 H        0.925     0.030     2.589     2.516
    46   1 H        0.925     0.054     2.271     2.357
    47   1 H        0.925     0.039     2.457     2.451
    48   1 H        0.925     0.052     2.296     2.370
    49   1 H        0.925     0.052     2.297     2.370
    50   1 H        0.925     0.044     2.401     2.423
    51   1 H        0.925     0.042     2.422     2.434
    52   1 H        0.925     0.042     2.417     2.431
    53   1 H        0.925     0.052     2.293     2.368
    54   1 H        0.925     0.044     2.398     2.422
    55   1 H        0.925     0.040     2.454     2.450
    56   1 H        0.925     0.052     2.296     2.369
    57   1 H        0.925     0.054     2.268     2.355
    58   1 H        0.925     0.038     2.482     2.464
    59   1 H        0.925     0.035     2.521     2.483
    60   1 H        0.925     0.019     2.747     2.592

 Mol. C6AA /au·bohr⁶  :      32403.406719
 Mol. C8AA /au·bohr⁸  :     749098.603260
 Mol. α(0) /au        :        269.896418


Wiberg/Mayer (AO) data.
largest (>0.10) Wiberg bond orders for each atom

 ---------------------------------------------------------------------------
     #   Z sym  total        # sym  WBO       # sym  WBO       # sym  WBO
 ---------------------------------------------------------------------------
     1   6 C    3.994 --     2 C    0.997    34 H    0.984    33 H    0.982
                            35 H    0.982
     2   6 C    3.942 --     1 C    0.997     4 C    0.991     3 O    0.951
                             5 C    0.937
     3   8 O    2.224 --     9 B    1.124     2 C    0.951
     4   6 C    3.994 --     2 C    0.991    38 H    0.984    37 H    0.984
                            36 H    0.983
     5   6 C    3.941 --     6 C    0.997     7 C    0.991     8 O    0.950
                             2 C    0.937
     6   6 C    3.994 --     5 C    0.997    39 H    0.984    41 H    0.982
                            40 H    0.982
     7   6 C    3.995 --     5 C    0.991    42 H    0.984    44 H    0.984
                            43 H    0.983
     8   8 O    2.234 --     9 B    1.136     5 C    0.950
     9   5 B    3.378 --     8 O    1.136     3 O    1.124    10 C    1.001
    10   6 C    3.929 --    11 C    1.225     9 B    1.001    27 C    0.890
                            29 C    0.620
    11   6 C    3.984 --    12 C    1.602    10 C    1.225    45 H    0.963
                            30 C    0.100
    12   6 C    3.970 --    11 C    1.602    13 H    0.971    14 C    0.950
                            31 C    0.295
    13   1 H    0.999 --    12 C    0.971
    14   6 C    3.981 --    16 C    0.998    15 H    0.969    31 C    0.958
                            12 C    0.950
    15   1 H    0.998 --    14 C    0.969
    16   6 C    3.977 --    26 C    1.829    17 B    1.001    14 C    0.998
    17   5 B    3.376 --    25 O    1.129    18 O    1.126    16 C    1.001
    18   8 O    2.232 --    17 B    1.126    19 C    0.953
    19   6 C    3.943 --    20 C    0.997    21 C    0.991    18 O    0.953
                            22 C    0.936
    20   6 C    3.994 --    19 C    0.997    47 H    0.985    46 H    0.983
                            48 H    0.982
    21   6 C    3.994 --    19 C    0.991    51 H    0.984    50 H    0.984
                            49 H    0.983
    22   6 C    3.943 --    24 C    0.996    23 C    0.991    25 O    0.953
                            19 C    0.936
    23   6 C    3.995 --    22 C    0.991    52 H    0.984    54 H    0.984
                            53 H    0.983
    24   6 C    3.994 --    22 C    0.996    55 H    0.985    57 H    0.983
                            56 H    0.982
    25   8 O    2.233 --    17 B    1.129    22 C    0.953
    26   6 C    3.988 --    16 C    1.829    27 C    1.045    58 H    0.965
    27   6 C    3.965 --    26 C    1.045    28 H    0.969    29 C    0.937
                            10 C    0.890
    28   1 H    0.998 --    27 C    0.969
    29   6 C    3.948 --    30 C    1.247    59 H    0.973    27 C    0.937
                            10 C    0.620
    30   6 C    3.979 --    31 C    1.583    29 C    1.247    60 H    0.965
                            11 C    0.100
    31   6 C    3.964 --    30 C    1.583    32 H    0.971    14 C    0.958
                            12 C    0.295
    32   1 H    0.999 --    31 C    0.971
    33   1 H    0.997 --     1 C    0.982
    34   1 H    0.998 --     1 C    0.984
    35   1 H    0.997 --     1 C    0.982
    36   1 H    0.997 --     4 C    0.983
    37   1 H    0.998 --     4 C    0.984
    38   1 H    0.998 --     4 C    0.984
    39   1 H    0.998 --     6 C    0.984
    40   1 H    0.997 --     6 C    0.982
    41   1 H    0.997 --     6 C    0.982
    42   1 H    0.998 --     7 C    0.984
    43   1 H    0.997 --     7 C    0.983
    44   1 H    0.998 --     7 C    0.984
    45   1 H    0.999 --    11 C    0.963
    46   1 H    0.997 --    20 C    0.983
    47   1 H    0.998 --    20 C    0.985
    48   1 H    0.997 --    20 C    0.982
    49   1 H    0.997 --    21 C    0.983
    50   1 H    0.998 --    21 C    0.984
    51   1 H    0.998 --    21 C    0.984
    52   1 H    0.998 --    23 C    0.984
    53   1 H    0.997 --    23 C    0.983
    54   1 H    0.998 --    23 C    0.984
    55   1 H    0.998 --    24 C    0.985
    56   1 H    0.997 --    24 C    0.982
    57   1 H    0.997 --    24 C    0.983
    58   1 H    0.998 --    26 C    0.965
    59   1 H    0.998 --    29 C    0.973
    60   1 H    0.999 --    30 C    0.965
 ---------------------------------------------------------------------------

Topologies differ in total number of bonds
Writing topology from bond orders to xtbtopo.mol

molecular dipole:
                 x           y           z       tot (Debye)
 q only:       -0.268      -0.508      -0.043
   full:       -0.173      -0.575      -0.122       1.557
molecular quadrupole (traceless):
                xx          xy          yy          xz          yz          zz
 q only:      -45.345      19.795      64.655     -29.637     -16.365     -19.310
  q+dip:      -45.795      11.857      73.112     -24.715     -10.250     -27.317
   full:      -46.429      10.685      74.937     -25.815     -11.612     -28.508

           -------------------------------------------------
          |                Geometry Summary                 |
           -------------------------------------------------

      molecular mass/u    :      382.1099696
   center of mass at/Å    :        2.9433851     -35.9404354      21.8347735
  moments of inertia/u·Å² :        0.1171390E+04   0.6855383E+04   0.7166472E+04
rotational constants/cm⁻¹ :        0.1439114E-01   0.2459036E-02   0.2352292E-02

 * 60 selected distances

     #   Z          #   Z                                           value/Å
     1   6 C        2   6 C                                       1.5266606
     2   6 C        3   8 O                                       1.4277321
     2   6 C        4   6 C                                       1.5338702
     5   6 C        6   6 C                                       1.5266801
     5   6 C        7   6 C                                       1.5336668
     5   6 C        8   8 O                                       1.4286934
     3   8 O        9   5 B                                       1.3685173
     8   8 O        9   5 B                                       1.3646175
     9   5 B       10   6 C                                       1.5615860 (max)
    10   6 C       11   6 C                                       1.4282252
    11   6 C       12   6 C                                       1.3605346
    12   6 C       13   1 H                                       1.0834841
    12   6 C       14   6 C                                       1.4899308
    14   6 C       15   1 H                                       1.0884124
    16   6 C       17   5 B                                       1.5590661
    17   5 B       18   8 O                                       1.3683885
    18   8 O       19   6 C                                       1.4264931
    19   6 C       20   6 C                                       1.5269784
    19   6 C       21   6 C                                       1.5341371
    22   6 C       23   6 C                                       1.5340379
    22   6 C       24   6 C                                       1.5271217
    17   5 B       25   8 O                                       1.3671624
    22   6 C       25   8 O                                       1.4271296
    16   6 C       26   6 C                                       1.3340371
    10   6 C       27   6 C                                       1.5180963
    26   6 C       27   6 C                                       1.4712494
    27   6 C       28   1 H                                       1.0857124
    27   6 C       29   6 C                                       1.4932298
    29   6 C       30   6 C                                       1.4174006
    14   6 C       31   6 C                                       1.4871457
    30   6 C       31   6 C                                       1.3627392
    31   6 C       32   1 H                                       1.0834457
     1   6 C       33   1 H                                       1.0872126
     1   6 C       34   1 H                                       1.0865791
     1   6 C       35   1 H                                       1.0851432
     4   6 C       36   1 H                                       1.0876901
     4   6 C       37   1 H                                       1.0871880
     4   6 C       38   1 H                                       1.0857104
     6   6 C       39   1 H                                       1.0866280
     6   6 C       40   1 H                                       1.0850713
     6   6 C       41   1 H                                       1.0870947
     7   6 C       42   1 H                                       1.0858408
     7   6 C       43   1 H                                       1.0875351
     7   6 C       44   1 H                                       1.0871322
    11   6 C       45   1 H                                       1.0823935
    20   6 C       46   1 H                                       1.0872406
    20   6 C       47   1 H                                       1.0866616
    20   6 C       48   1 H                                       1.0851486
    21   6 C       49   1 H                                       1.0876731
    21   6 C       50   1 H                                       1.0871320
    21   6 C       51   1 H                                       1.0858063
    23   6 C       52   1 H                                       1.0858809
    23   6 C       53   1 H                                       1.0875471
    23   6 C       54   1 H                                       1.0870509
    24   6 C       55   1 H                                       1.0866779
    24   6 C       56   1 H                                       1.0851032
    24   6 C       57   1 H                                       1.0871474
    26   6 C       58   1 H                                       1.0819486
    29   6 C       59   1 H                                       1.0812213 (min)
    30   6 C       60   1 H                                       1.0830633

 * 5 distinct bonds (by element types)

   Z      Z             #   av. dist./Å        max./Å        min./Å
   1 H    6 C          32     1.0858618     1.0884124     1.0812213
   5 B    6 C           2     1.5603260     1.5615860     1.5590661
   6 C    6 C          18     1.4780968     1.5341371     1.3340371
   5 B    8 O           4     1.3671714     1.3685173     1.3646175
   6 C    8 O           4     1.4275121     1.4286934     1.4264931


optimized geometry written to: xtbopt.xyz


           -------------------------------------------------
          | TOTAL ENERGY              -82.302704899250 Eh   |
          | GRADIENT NORM               0.000848225121 Eh/α |
          | HOMO-LUMO GAP               2.981426797486 eV   |
           -------------------------------------------------

------------------------------------------------------------------------
 * finished run on 2022/07/09 at 18:33:31.877     
------------------------------------------------------------------------
 total:
 * wall-time:     0 d,  0 h,  0 min,  1.688 sec
 *  cpu-time:     0 d,  0 h,  0 min,  1.686 sec
 * ratio c/w:     0.999 speedup
 SCF:
 * wall-time:     0 d,  0 h,  0 min,  0.070 sec
 *  cpu-time:     0 d,  0 h,  0 min,  0.070 sec
 * ratio c/w:     0.996 speedup
 ANC optimizer:
 * wall-time:     0 d,  0 h,  0 min,  1.606 sec
 *  cpu-time:     0 d,  0 h,  0 min,  1.605 sec
 * ratio c/w:     0.999 speedup

