      -----------------------------------------------------------      
     |                   =====================                   |     
     |                           x T B                           |     
     |                   =====================                   |     
     |                         S. Grimme                         |     
     |          Mulliken Center for Theoretical Chemistry        |     
     |                    University of Bonn                     |     
      -----------------------------------------------------------      

   * xtb version 6.5.0 (homebrew) compiled by 'nhattrup@GPGGRP-SHANNON.CHEME.CMU.EDU' on 

   xtb is free software: you can redistribute it and/or modify it under
   the terms of the GNU Lesser General Public License as published by
   the Free Software Foundation, either version 3 of the License, or
   (at your option) any later version.
   
   xtb is distributed in the hope that it will be useful,
   but WITHOUT ANY WARRANTY; without even the implied warranty of
   MERCHANTABILITY or FITNESS FOR A PARTICULAR PURPOSE.  See the
   GNU Lesser General Public License for more details.
   
   Cite this work as:
   * C. Bannwarth, E. Caldeweyher, S. Ehlert, A. Hansen, P. Pracht,
     J. Seibert, S. Spicher, S. Grimme, WIREs Comput. Mol. Sci., 2020, 11,
     e01493. DOI: 10.1002/wcms.1493
   
   for GFN2-xTB:
   * C. Bannwarth, S. Ehlert and S. Grimme., J. Chem. Theory Comput., 2019,
     15, 1652-1671. DOI: 10.1021/acs.jctc.8b01176
   for GFN1-xTB:
   * S. Grimme, C. Bannwarth, P. Shushkov, J. Chem. Theory Comput., 2017,
     13, 1989-2009. DOI: 10.1021/acs.jctc.7b00118
   for GFN0-xTB:
   * P. Pracht, E. Caldeweyher, S. Ehlert, S. Grimme, ChemRxiv, 2019, preprint.
     DOI: 10.26434/chemrxiv.8326202.v1
   for GFN-FF:
   * S. Spicher and S. Grimme, Angew. Chem. Int. Ed., 2020, 59, 15665-15673.
     DOI: 10.1002/anie.202004239
   
   for ALPB and GBSA implicit solvation:
   * S. Ehlert, M. Stahn, S. Spicher, S. Grimme, J. Chem. Theory Comput.,
     2021, 17, 4250-4261. DOI: 10.1021/acs.jctc.1c00471
   
   for DFT-D4:
   * E. Caldeweyher, C. Bannwarth and S. Grimme, J. Chem. Phys., 2017,
     147, 034112. DOI: 10.1063/1.4993215
   * E. Caldeweyher, S. Ehlert, A. Hansen, H. Neugebauer, S. Spicher,
     C. Bannwarth and S. Grimme, J. Chem. Phys., 2019, 150, 154122.
     DOI: 10.1063/1.5090222
   * E. Caldeweyher, J.-M. Mewes, S. Ehlert and S. Grimme, Phys. Chem. Chem. Phys.
     2020, 22, 8499-8512. DOI: 10.1039/D0CP00502A
   
   for sTDA-xTB:
   * S. Grimme and C. Bannwarth, J. Chem. Phys., 2016, 145, 054103.
     DOI: 10.1063/1.4959605
   
   in the mass-spec context:
   * V. Asgeirsson, C. Bauer and S. Grimme, Chem. Sci., 2017, 8, 4879.
     DOI: 10.1039/c7sc00601b
   * J. Koopman and S. Grimme, ACS Omega 2019, 4, 12, 15120-15133.
     DOI: 10.1021/acsomega.9b02011
   
   for metadynamics refer to:
   * S. Grimme, J. Chem. Theory Comput., 2019, 155, 2847-2862
     DOI: 10.1021/acs.jctc.9b00143
   
   for SPH calculations refer to:
   * S. Spicher and S. Grimme, J. Chem. Theory Comput., 2021, 17, 1701-1714
     DOI: 10.1021/acs.jctc.0c01306
   
   with help from (in alphabetical order)
   P. Atkinson, C. Bannwarth, F. Bohle, G. Brandenburg, E. Caldeweyher
   M. Checinski, S. Dohm, S. Ehlert, S. Ehrlich, I. Gerasimov, C. Hölzer
   A. Katbashev, J. Koopman, C. Lavigne, S. Lehtola, F. März, M. Müller,
   F. Musil, H. Neugebauer, J. Pisarek, C. Plett, P. Pracht, F. Pultar,
   J. Seibert, P. Shushkov, S. Spicher, M. Stahn, M. Steiner, T. Strunk,
   J. Stückrath, T. Rose, and J. Unsleber
   
 * started run on 2022/07/09 at 18:33:13.368     

           -------------------------------------------------
          |                Calculation Setup                |
           -------------------------------------------------

          program call               : /opt/homebrew/bin/xtb bvl_bpin2_scan_2-5_xtb.xyz --chrg 0 --uhf 0 --opt --input xcontrol_bvl_bpin2_scan_2-5_xtb
          coordinate file            : bvl_bpin2_scan_2-5_xtb.xyz
          omp threads                :                     1

   ID    Z sym.   atoms
    1    6 C      1, 2, 4-7, 10-12, 14, 16, 19-24, 26, 27, 29-31
    2    8 O      3, 8, 18, 25
    3    5 B      9, 17
    4    1 H      13, 15, 28, 32-60
constraining bond 12 31 to    1.7222000 Å, actual value:    1.6099453 Å
constraining bond 10 29 to    1.9444000 Å, actual value:    2.0587841 Å

           -------------------------------------------------
          |                 G F N 2 - x T B                 |
           -------------------------------------------------

        Reference                      10.1021/acs.jctc.8b01176
      * Hamiltonian:
        H0-scaling (s, p, d)           1.850000    2.230000    2.230000
        zeta-weighting                 0.500000
      * Dispersion:
        s8                             2.700000
        a1                             0.520000
        a2                             5.000000
        s9                             5.000000
      * Repulsion:
        kExp                           1.500000    1.000000
        rExp                           1.000000
      * Coulomb:
        alpha                          2.000000
        third order                    shell-resolved
        anisotropic                    true
        a3                             3.000000
        a5                             4.000000
        cn-shift                       1.200000
        cn-exp                         4.000000
        max-rad                        5.000000


          ...................................................
          :                      SETUP                      :
          :.................................................:
          :  # basis functions                 144          :
          :  # atomic orbitals                 144          :
          :  # shells                           88          :
          :  # electrons                       150          :
          :  max. iterations                   250          :
          :  Hamiltonian                  GFN2-xTB          :
          :  restarted?                      false          :
          :  GBSA solvation                  false          :
          :  PC potential                    false          :
          :  electronic temp.          300.0000000     K    :
          :  accuracy                    1.0000000          :
          :  -> integral cutoff          0.2500000E+02      :
          :  -> integral neglect         0.1000000E-07      :
          :  -> SCF convergence          0.1000000E-05 Eh   :
          :  -> wf. convergence          0.1000000E-03 e    :
          :  Broyden damping             0.4000000          :
          ...................................................

 iter      E             dE          RMSdq      gap      omega  full diag
   1    -82.9620804 -0.829621E+02  0.466E+00    3.33       0.0  T
   2    -83.3448431 -0.382763E+00  0.287E+00    2.84       1.0  T
   3    -83.3577936 -0.129505E-01  0.136E+00    3.19       1.0  T
   4    -83.3799300 -0.221364E-01  0.401E-01    3.03       1.0  T
   5    -83.3906842 -0.107543E-01  0.149E-01    3.10       1.0  T
   6    -83.3905616  0.122620E-03  0.108E-01    3.10       1.0  T
   7    -83.3909353 -0.373670E-03  0.312E-02    3.09       1.0  T
   8    -83.3909735 -0.382170E-04  0.891E-03    3.09       1.4  T
   9    -83.3909748 -0.132389E-05  0.462E-03    3.09       2.8  T
  10    -83.3909752 -0.339325E-06  0.230E-03    3.09       5.6  T
  11    -83.3909753 -0.110749E-06  0.506E-04    3.09      25.5  T
  12    -83.3909753 -0.719965E-08  0.223E-04    3.09      57.8  T

   *** convergence criteria satisfied after 12 iterations ***

         #    Occupation            Energy/Eh            Energy/eV
      -------------------------------------------------------------
         1        2.0000           -0.6882567             -18.7284
       ...           ...                  ...                  ...
        69        2.0000           -0.4075062             -11.0888
        70        2.0000           -0.3976099             -10.8195
        71        2.0000           -0.3975483             -10.8178
        72        2.0000           -0.3955986             -10.7648
        73        2.0000           -0.3827802             -10.4160
        74        2.0000           -0.3617699              -9.8443
        75        2.0000           -0.3372365              -9.1767 (HOMO)
        76                         -0.2235299              -6.0826 (LUMO)
        77                         -0.2111638              -5.7461
        78                         -0.1791810              -4.8758
        79                         -0.1030296              -2.8036
        80                         -0.0906039              -2.4655
       ...                                ...                  ...
       144                          0.6937143              18.8769
      -------------------------------------------------------------
                  HL-Gap            0.1137066 Eh            3.0941 eV
             Fermi-level           -0.2803832 Eh           -7.6296 eV

 SCC (total)                   0 d,  0 h,  0 min,  0.068 sec
 SCC setup                      ...        0 min,  0.000 sec (  0.349%)
 Dispersion                     ...        0 min,  0.000 sec (  0.628%)
 classical contributions        ...        0 min,  0.000 sec (  0.256%)
 integral evaluation            ...        0 min,  0.006 sec (  8.857%)
 iterations                     ...        0 min,  0.034 sec ( 49.118%)
 molecular gradient             ...        0 min,  0.028 sec ( 40.267%)
 printout                       ...        0 min,  0.000 sec (  0.515%)

         :::::::::::::::::::::::::::::::::::::::::::::::::::::
         ::                     SUMMARY                     ::
         :::::::::::::::::::::::::::::::::::::::::::::::::::::
         :: total energy             -82.126394913165 Eh    ::
         :: gradient norm              1.680170361836 Eh/a0 ::
         :: HOMO-LUMO gap              3.094113206573 eV    ::
         ::.................................................::
         :: SCC energy               -83.390975275471 Eh    ::
         :: -> isotropic ES            0.147434917264 Eh    ::
         :: -> anisotropic ES          0.011873882083 Eh    ::
         :: -> anisotropic XC          0.026429390458 Eh    ::
         :: -> dispersion             -0.061605071862 Eh    ::
         :: repulsion energy           1.080456649344 Eh    ::
         :: add. restraining           0.183444533980 Eh    ::
         :: total charge               0.000000000000 e     ::
         :::::::::::::::::::::::::::::::::::::::::::::::::::::

      ----------------------------------------------------------- 
     |                   =====================                   |
     |                        A N C O P T                        |
     |                   =====================                   |
     |               Approximate Normal Coordinate               |
     |                Rational Function Optimizer                |
      ----------------------------------------------------------- 

          ...................................................
          :                      SETUP                      :
          :.................................................:
          :   optimization level            normal          :
          :   max. optcycles                   200          :
          :   ANC micro-cycles                  20          :
          :   degrees of freedom               174          :
          :.................................................:
          :   RF solver                   davidson          :
          :   write xtbopt.log                true          :
          :   linear?                        false          :
          :   energy convergence         0.5000000E-05 Eh   :
          :   grad. convergence          0.1000000E-02 Eh/α :
          :   maximium RF displ.         1.0000000          :
          :   Hlow (freq-cutoff)         0.1000000E-01      :
          :   Hmax (freq-cutoff)         5.0000000          :
          :   S6 in model hess.         20.0000000          :
          ...................................................

generating ANC from model Hessian ...
Using Lindh-Hessian (1995)
 Shifting diagonal of input Hessian by   0.21321377862909807     
 Lowest  eigenvalues of input Hessian
    0.010000    0.133035    0.000000    0.000000    0.000000    0.000000
    0.000000    0.000000    0.213322    0.213355    0.213499    0.214857
    0.215094    0.215953    0.216491    0.216558    0.217915    0.218393
 Highest eigenvalues
    1.933167    2.064456    2.127581    2.278311    8.917334    9.345979


........................................................................
.............................. CYCLE    1 ..............................
........................................................................
   1    -83.3909753 -0.833910E+02  0.117E-04    3.09       0.0  T
   2    -83.3909753 -0.804988E-09  0.711E-05    3.09     181.6  T
   3    -83.3909753 -0.353509E-09  0.223E-05    3.09     578.2  T
     SCC iter.                  ...        0 min,  0.009 sec
     gradient                   ...        0 min,  0.028 sec
 * total energy  :   -82.1263949 Eh     change       -0.1204711E-08 Eh
   gradient norm :     1.6801707 Eh/α   predicted     0.0000000E+00 (-100.00%)
   displ. norm   :     0.3106813 α      lambda       -0.5163115E+00
   maximum displ.:     0.2284748 α      in ANC's #174, #173, #128, ...

........................................................................
.............................. CYCLE    2 ..............................
........................................................................
   1    -83.3711261 -0.833711E+02  0.392E-01    2.98       0.0  T
   2    -83.3715639 -0.437760E-03  0.284E-01    2.94       1.0  T
   3    -83.3715159  0.479333E-04  0.158E-01    2.97       1.0  T
   4    -83.3724698 -0.953832E-03  0.457E-02    2.95       1.0  T
   5    -83.3725790 -0.109268E-03  0.652E-03    2.95       2.0  T
   6    -83.3725794 -0.422686E-06  0.359E-03    2.95       3.6  T
   7    -83.3725796 -0.139856E-06  0.112E-03    2.95      11.5  T
   8    -83.3725796 -0.301190E-07  0.380E-04    2.95      34.0  T
   9    -83.3725796 -0.258100E-08  0.173E-04    2.95      74.6  T
     SCC iter.                  ...        0 min,  0.024 sec
     gradient                   ...        0 min,  0.028 sec
 * total energy  :   -82.2569730 Eh     change       -0.1305781E+00 Eh
   gradient norm :     0.8320337 Eh/α   predicted    -0.2831196E+00 ( 116.82%)
   displ. norm   :     0.1062829 α      lambda       -0.8417376E-01
   maximum displ.:     0.0746814 α      in ANC's #174, #173, #128, ...

........................................................................
.............................. CYCLE    3 ..............................
........................................................................
   1    -83.3781209 -0.833781E+02  0.133E-01    2.98       0.0  T
   2    -83.3782037 -0.828588E-04  0.108E-01    2.99       1.0  T
   3    -83.3783604 -0.156721E-03  0.567E-02    2.98       1.0  T
   4    -83.3783992 -0.387282E-04  0.183E-02    2.99       1.0  T
   5    -83.3784163 -0.171637E-04  0.324E-03    2.98       4.0  T
   6    -83.3784167 -0.389281E-06  0.150E-03    2.98       8.6  T
   7    -83.3784167 -0.207779E-07  0.475E-04    2.98      27.2  T
   8    -83.3784167 -0.442694E-08  0.180E-04    2.98      71.9  T
     SCC iter.                  ...        0 min,  0.022 sec
     gradient                   ...        0 min,  0.028 sec
 * total energy  :   -82.3004714 Eh     change       -0.4349834E-01 Eh
   gradient norm :     0.0348865 Eh/α   predicted    -0.4256215E-01 (  -2.15%)
   displ. norm   :     0.0419276 α      lambda       -0.9399815E-03
   maximum displ.:     0.0153040 α      in ANC's #1, #28, #37, ...

........................................................................
.............................. CYCLE    4 ..............................
........................................................................
   1    -83.3784125 -0.833784E+02  0.287E-02    2.98       0.0  T
   2    -83.3784181 -0.555960E-05  0.182E-02    2.98       1.0  T
   3    -83.3784170  0.106410E-05  0.118E-02    2.98       1.1  T
   4    -83.3784220 -0.492557E-05  0.365E-03    2.98       3.5  T
   5    -83.3784226 -0.631651E-06  0.894E-04    2.98      14.4  T
   6    -83.3784226 -0.367774E-07  0.310E-04    2.98      41.7  T
     SCC iter.                  ...        0 min,  0.016 sec
     gradient                   ...        0 min,  0.028 sec
 * total energy  :   -82.3011933 Eh     change       -0.7219626E-03 Eh
   gradient norm :     0.0177314 Eh/α   predicted    -0.4709742E-03 ( -34.76%)
   displ. norm   :     0.3210534 α      lambda       -0.2245600E-02
   maximum displ.:     0.2938482 α      in ANC's #1, #28, #37, ...

........................................................................
.............................. CYCLE    5 ..............................
........................................................................
   1    -83.3697603 -0.833698E+02  0.207E-01    2.98       0.0  T
   2    -83.3698606 -0.100335E-03  0.120E-01    2.98       1.0  T
   3    -83.3697400  0.120674E-03  0.698E-02    2.98       1.0  T
   4    -83.3699136 -0.173643E-03  0.163E-02    2.98       1.0  T
   5    -83.3699285 -0.149014E-04  0.263E-03    2.98       4.9  T
   6    -83.3699287 -0.210130E-06  0.127E-03    2.98      10.1  T
   7    -83.3699287 -0.139479E-07  0.461E-04    2.98      28.0  T
   8    -83.3699287 -0.653652E-08  0.112E-04    2.98     115.3  T
     SCC iter.                  ...        0 min,  0.022 sec
     gradient                   ...        0 min,  0.028 sec
 * total energy  :   -82.2957568 Eh     change        0.5436501E-02 Eh
   gradient norm :     0.1013291 Eh/α   predicted    -0.1238618E-02 (-122.78%)
   displ. norm   :     0.2686191 α      lambda       -0.1265217E-01
   maximum displ.:     0.2676740 α      in ANC's #1, #44, #128, ...

........................................................................
.............................. CYCLE    6 ..............................
........................................................................
   1    -83.3779036 -0.833779E+02  0.172E-01    2.97       0.0  T
   2    -83.3779615 -0.578800E-04  0.986E-02    2.97       1.0  T
   3    -83.3779097  0.517351E-04  0.549E-02    2.97       1.0  T
   4    -83.3779911 -0.814241E-04  0.944E-03    2.97       1.4  T
   5    -83.3779963 -0.510550E-05  0.178E-03    2.97       7.3  T
   6    -83.3779963 -0.541604E-07  0.986E-04    2.97      13.1  T
   7    -83.3779963 -0.156775E-07  0.242E-04    2.97      53.4  T
     SCC iter.                  ...        0 min,  0.019 sec
     gradient                   ...        0 min,  0.028 sec
 * total energy  :   -82.3017094 Eh     change       -0.5952561E-02 Eh
   gradient norm :     0.0331821 Eh/α   predicted    -0.6782501E-02 (  13.94%)
   displ. norm   :     0.0376739 α      lambda       -0.4989060E-03
   maximum displ.:     0.0179129 α      in ANC's #1, #128, #109, ...

........................................................................
.............................. CYCLE    7 ..............................
........................................................................
   1    -83.3787962 -0.833788E+02  0.300E-02    2.98       0.0  T
   2    -83.3788024 -0.615995E-05  0.188E-02    2.98       1.0  T
   3    -83.3788001  0.229149E-05  0.113E-02    2.98       1.1  T
   4    -83.3788048 -0.468312E-05  0.396E-03    2.98       3.3  T
   5    -83.3788056 -0.835542E-06  0.813E-04    2.98      15.9  T
   6    -83.3788056 -0.285728E-07  0.299E-04    2.98      43.2  T
     SCC iter.                  ...        0 min,  0.016 sec
     gradient                   ...        0 min,  0.028 sec
 * total energy  :   -82.3018528 Eh     change       -0.1434188E-03 Eh
   gradient norm :     0.0226252 Eh/α   predicted    -0.2497933E-03 (  74.17%)
   displ. norm   :     0.0264685 α      lambda       -0.1668098E-03
   maximum displ.:     0.0132665 α      in ANC's #28, #37, #36, ...

........................................................................
.............................. CYCLE    8 ..............................
........................................................................
   1    -83.3788306 -0.833788E+02  0.132E-02    2.97       0.0  T
   2    -83.3788309 -0.299157E-06  0.781E-03    2.97       1.7  T
   3    -83.3788307  0.228169E-06  0.242E-03    2.97       5.3  T
   4    -83.3788310 -0.294413E-06  0.481E-04    2.97      26.8  T
   5    -83.3788310 -0.136422E-07  0.159E-04    2.97      81.3  T
     SCC iter.                  ...        0 min,  0.014 sec
     gradient                   ...        0 min,  0.028 sec
 * total energy  :   -82.3019741 Eh     change       -0.1212703E-03 Eh
   gradient norm :     0.0039365 Eh/α   predicted    -0.8348706E-04 ( -31.16%)
   displ. norm   :     0.0592890 α      lambda       -0.1836574E-03
   maximum displ.:     0.0328584 α      in ANC's #28, #37, #36, ...

........................................................................
.............................. CYCLE    9 ..............................
........................................................................
   1    -83.3791378 -0.833791E+02  0.281E-02    2.97       0.0  T
   2    -83.3791382 -0.410873E-06  0.166E-02    2.97       1.0  T
   3    -83.3791370  0.116440E-05  0.464E-03    2.97       2.8  T
   4    -83.3791384 -0.133404E-05  0.821E-04    2.97      15.7  T
   5    -83.3791384 -0.299233E-07  0.327E-04    2.97      39.5  T
   6    -83.3791384  0.986631E-09  0.212E-04    2.97      60.8  T
     SCC iter.                  ...        0 min,  0.016 sec
     gradient                   ...        0 min,  0.028 sec
 * total energy  :   -82.3021053 Eh     change       -0.1311781E-03 Eh
   gradient norm :     0.0100681 Eh/α   predicted    -0.9222270E-04 ( -29.70%)
   displ. norm   :     0.0686747 α      lambda       -0.1543739E-03
   maximum displ.:     0.0409001 α      in ANC's #28, #37, #36, ...

........................................................................
.............................. CYCLE   10 ..............................
........................................................................
   1    -83.3797087 -0.833797E+02  0.324E-02    2.97       0.0  T
   2    -83.3797092 -0.499787E-06  0.192E-02    2.97       1.0  T
   3    -83.3797067  0.253976E-05  0.659E-03    2.97       2.0  T
   4    -83.3797096 -0.288980E-05  0.829E-04    2.97      15.6  T
   5    -83.3797096 -0.192176E-07  0.475E-04    2.97      27.2  T
   6    -83.3797096 -0.505484E-08  0.241E-04    2.97      53.6  T
     SCC iter.                  ...        0 min,  0.016 sec
     gradient                   ...        0 min,  0.028 sec
 * total energy  :   -82.3022067 Eh     change       -0.1014971E-03 Eh
   gradient norm :     0.0133490 Eh/α   predicted    -0.7757395E-04 ( -23.57%)
   displ. norm   :     0.0434998 α      lambda       -0.6942729E-04
   maximum displ.:     0.0275630 α      in ANC's #28, #37, #36, ...

........................................................................
.............................. CYCLE   11 ..............................
........................................................................
   1    -83.3801315 -0.833801E+02  0.199E-02    2.98       0.0  T
   2    -83.3801317 -0.213486E-06  0.118E-02    2.98       1.1  T
   3    -83.3801311  0.596382E-06  0.365E-03    2.98       3.5  T
   4    -83.3801318 -0.691451E-06  0.464E-04    2.98      27.8  T
   5    -83.3801318 -0.710750E-08  0.229E-04    2.98      56.4  T
     SCC iter.                  ...        0 min,  0.016 sec
     gradient                   ...        0 min,  0.028 sec
 * total energy  :   -82.3022538 Eh     change       -0.4703893E-04 Eh
   gradient norm :     0.0045032 Eh/α   predicted    -0.3478854E-04 ( -26.04%)
   displ. norm   :     0.0270156 α      lambda       -0.4065368E-04
   maximum displ.:     0.0176465 α      in ANC's #28, #8, #27, ...

........................................................................
.............................. CYCLE   12 ..............................
........................................................................
   1    -83.3805134 -0.833805E+02  0.121E-02    2.98       0.0  T
   2    -83.3805136 -0.224824E-06  0.724E-03    2.98       1.8  T
   3    -83.3805133  0.374203E-06  0.265E-03    2.98       4.9  T
   4    -83.3805137 -0.446250E-06  0.486E-04    2.98      26.6  T
   5    -83.3805137 -0.124023E-07  0.155E-04    2.98      83.1  T
     SCC iter.                  ...        0 min,  0.014 sec
     gradient                   ...        0 min,  0.028 sec
 * total energy  :   -82.3022832 Eh     change       -0.2945787E-04 Eh
   gradient norm :     0.0034820 Eh/α   predicted    -0.2038176E-04 ( -30.81%)
   displ. norm   :     0.0308987 α      lambda       -0.3916067E-04
   maximum displ.:     0.0191621 α      in ANC's #28, #8, #43, ...

........................................................................
.............................. CYCLE   13 ..............................
........................................................................
   1    -83.3807949 -0.833808E+02  0.119E-02    2.98       0.0  T
   2    -83.3807950 -0.111479E-06  0.708E-03    2.98       1.8  T
   3    -83.3807948  0.205326E-06  0.218E-03    2.98       5.9  T
   4    -83.3807950 -0.222538E-06  0.547E-04    2.98      23.6  T
   5    -83.3807950 -0.144114E-07  0.190E-04    2.98      67.8  T
     SCC iter.                  ...        0 min,  0.014 sec
     gradient                   ...        0 min,  0.028 sec
 * total energy  :   -82.3023122 Eh     change       -0.2898496E-04 Eh
   gradient norm :     0.0070795 Eh/α   predicted    -0.1961156E-04 ( -32.34%)
   displ. norm   :     0.0408980 α      lambda       -0.4339938E-04
   maximum displ.:     0.0238146 α      in ANC's #28, #8, #43, ...

........................................................................
.............................. CYCLE   14 ..............................
........................................................................
   1    -83.3809178 -0.833809E+02  0.138E-02    2.99       0.0  T
   2    -83.3809179 -0.100168E-06  0.824E-03    2.99       1.6  T
   3    -83.3809176  0.269372E-06  0.252E-03    2.99       5.1  T
   4    -83.3809179 -0.302456E-06  0.417E-04    2.99      31.0  T
   5    -83.3809180 -0.530214E-08  0.222E-04    2.99      58.1  T
     SCC iter.                  ...        0 min,  0.014 sec
     gradient                   ...        0 min,  0.028 sec
 * total energy  :   -82.3023434 Eh     change       -0.3118528E-04 Eh
   gradient norm :     0.0067390 Eh/α   predicted    -0.2174227E-04 ( -30.28%)
   displ. norm   :     0.0393093 α      lambda       -0.3574974E-04
   maximum displ.:     0.0218307 α      in ANC's #28, #8, #43, ...

........................................................................
.............................. CYCLE   15 ..............................
........................................................................
   1    -83.3807820 -0.833808E+02  0.119E-02    2.99       0.0  T
   2    -83.3807821 -0.116632E-06  0.719E-03    2.99       1.8  T
   3    -83.3807818  0.366638E-06  0.295E-03    2.99       4.4  T
   4    -83.3807822 -0.432755E-06  0.354E-04    2.99      36.4  T
   5    -83.3807822 -0.378664E-08  0.181E-04    2.99      71.1  T
     SCC iter.                  ...        0 min,  0.014 sec
     gradient                   ...        0 min,  0.028 sec
 * total energy  :   -82.3023687 Eh     change       -0.2523789E-04 Eh
   gradient norm :     0.0038850 Eh/α   predicted    -0.1791271E-04 ( -29.02%)
   displ. norm   :     0.0298703 α      lambda       -0.2480113E-04
   maximum displ.:     0.0146647 α      in ANC's #28, #8, #37, ...

........................................................................
.............................. CYCLE   16 ..............................
........................................................................
   1    -83.3805310 -0.833805E+02  0.921E-03    2.99       0.0  T
   2    -83.3805311 -0.108908E-06  0.556E-03    2.99       2.3  T
   3    -83.3805309  0.228500E-06  0.263E-03    2.99       4.9  T
   4    -83.3805312 -0.286251E-06  0.380E-04    2.99      34.0  T
   5    -83.3805312 -0.591048E-08  0.165E-04    2.99      78.3  T
     SCC iter.                  ...        0 min,  0.014 sec
     gradient                   ...        0 min,  0.028 sec
 * total energy  :   -82.3023861 Eh     change       -0.1740974E-04 Eh
   gradient norm :     0.0020994 Eh/α   predicted    -0.1241515E-04 ( -28.69%)
   displ. norm   :     0.0235147 α      lambda       -0.1719500E-04
   maximum displ.:     0.0099833 α      in ANC's #28, #8, #2, ...

........................................................................
.............................. CYCLE   17 ..............................
........................................................................
   1    -83.3803109 -0.833803E+02  0.843E-03    2.99       0.0  T
   2    -83.3803110 -0.672431E-07  0.500E-03    2.99       2.6  T
   3    -83.3803108  0.135560E-06  0.190E-03    2.99       6.8  T
   4    -83.3803110 -0.161653E-06  0.335E-04    2.99      38.5  T
   5    -83.3803110 -0.434653E-08  0.144E-04    2.99      89.9  T
     SCC iter.                  ...        0 min,  0.014 sec
     gradient                   ...        0 min,  0.028 sec
 * total energy  :   -82.3023987 Eh     change       -0.1262213E-04 Eh
   gradient norm :     0.0033175 Eh/α   predicted    -0.8605600E-05 ( -31.82%)
   displ. norm   :     0.0274476 α      lambda       -0.1752052E-04
   maximum displ.:     0.0104746 α      in ANC's #28, #29, #8, ...

........................................................................
.............................. CYCLE   18 ..............................
........................................................................
   1    -83.3801430 -0.833801E+02  0.993E-03    2.99       0.0  T
   2    -83.3801431 -0.387479E-07  0.587E-03    2.99       2.2  T
   3    -83.3801429  0.110211E-06  0.157E-03    2.99       8.2  T
   4    -83.3801431 -0.121489E-06  0.368E-04    2.99      35.1  T
   5    -83.3801431 -0.594591E-08  0.147E-04    2.99      88.1  T
     SCC iter.                  ...        0 min,  0.014 sec
     gradient                   ...        0 min,  0.028 sec
 * total energy  :   -82.3024116 Eh     change       -0.1295773E-04 Eh
   gradient norm :     0.0036381 Eh/α   predicted    -0.8769958E-05 ( -32.32%)
   displ. norm   :     0.0346679 α      lambda       -0.1907350E-04
   maximum displ.:     0.0145662 α      in ANC's #29, #28, #8, ...

........................................................................
.............................. CYCLE   19 ..............................
........................................................................
   1    -83.3800356 -0.833800E+02  0.115E-02    2.99       0.0  T
   2    -83.3800356 -0.315365E-07  0.683E-03    2.99       1.9  T
   3    -83.3800354  0.189378E-06  0.181E-03    2.99       7.1  T
   4    -83.3800356 -0.211716E-06  0.298E-04    2.99      43.4  T
   5    -83.3800356 -0.228523E-08  0.166E-04    2.99      77.9  T
     SCC iter.                  ...        0 min,  0.014 sec
     gradient                   ...        0 min,  0.028 sec
 * total energy  :   -82.3024256 Eh     change       -0.1398488E-04 Eh
   gradient norm :     0.0027121 Eh/α   predicted    -0.9554559E-05 ( -31.68%)
   displ. norm   :     0.0377688 α      lambda       -0.1850719E-04
   maximum displ.:     0.0168601 α      in ANC's #29, #8, #28, ...

........................................................................
.............................. CYCLE   20 ..............................
........................................................................
   1    -83.3800088 -0.833800E+02  0.113E-02    2.98       0.0  T
   2    -83.3800088 -0.531416E-07  0.677E-03    2.98       1.9  T
   3    -83.3800085  0.312187E-06  0.245E-03    2.98       5.3  T
   4    -83.3800089 -0.358845E-06  0.233E-04    2.98      55.5  T
   5    -83.3800089 -0.692722E-09  0.124E-04    2.98     103.8  T
     SCC iter.                  ...        0 min,  0.014 sec
     gradient                   ...        0 min,  0.028 sec
 * total energy  :   -82.3024390 Eh     change       -0.1337164E-04 Eh
   gradient norm :     0.0021366 Eh/α   predicted    -0.9280877E-05 ( -30.59%)
   displ. norm   :     0.0333344 α      lambda       -0.1534322E-04
   maximum displ.:     0.0151473 α      in ANC's #29, #8, #6, ...
 * RMSD in coord.:     0.0740431 α      energy gain  -0.1760441E+00 Eh

generating ANC from model Hessian ...
Using Lindh-Hessian (1995)
 Shifting diagonal of input Hessian by    9.8957839032968817E-003
 Lowest  eigenvalues of input Hessian
    0.000000    0.000000    0.000000    0.000000    0.000000    0.000000
    0.010000    0.010033    0.010115    0.010517    0.011139    0.011818
    0.012396    0.013198    0.013215    0.013961    0.014841    0.015124
 Highest eigenvalues
    1.728017    1.839995    1.890486    1.927828    8.742718    8.959337


........................................................................
.............................. CYCLE   21 ..............................
........................................................................
   1    -83.3800423 -0.833800E+02  0.956E-03    2.98       0.0  T
   2    -83.3800423 -0.660621E-07  0.573E-03    2.98       2.3  T
   3    -83.3800421  0.254551E-06  0.240E-03    2.98       5.4  T
   4    -83.3800424 -0.297870E-06  0.264E-04    2.98      48.9  T
   5    -83.3800424 -0.175491E-08  0.148E-04    2.98      87.5  T
     SCC iter.                  ...        0 min,  0.014 sec
     gradient                   ...        0 min,  0.028 sec
 * total energy  :   -82.3024499 Eh     change       -0.1089511E-04 Eh
   gradient norm :     0.0024072 Eh/α   predicted     0.0000000E+00 (-100.00%)
   displ. norm   :     0.0316342 α      lambda        0.5861461E-05
   maximum displ.:     0.0137263 α      in ANC's #6, #1, #10, ...

........................................................................
.............................. CYCLE   22 ..............................
........................................................................
   1    -83.3802048 -0.833802E+02  0.997E-03    2.98       0.0  T
   2    -83.3802049 -0.291478E-07  0.587E-03    2.98       2.2  T
   3    -83.3802048  0.906007E-07  0.129E-03    2.98      10.0  T
   4    -83.3802049 -0.104418E-06  0.236E-04    2.98      54.8  T
   5    -83.3802049 -0.149099E-08  0.131E-04    2.98      98.5  T
     SCC iter.                  ...        0 min,  0.014 sec
     gradient                   ...        0 min,  0.028 sec
 * total energy  :   -82.3024684 Eh     change       -0.1845932E-04 Eh
   gradient norm :     0.0012555 Eh/α   predicted    -0.1292319E-04 ( -29.99%)
   displ. norm   :     0.0759578 α      lambda       -0.1823908E-04
   maximum displ.:     0.0400558 α      in ANC's #6, #1, #10, ...

........................................................................
.............................. CYCLE   23 ..............................
........................................................................
   1    -83.3804155 -0.833804E+02  0.175E-02    2.98       0.0  T
   2    -83.3804155 -0.637633E-07  0.104E-02    2.98       1.2  T
   3    -83.3804152  0.300865E-06  0.220E-03    2.98       5.9  T
   4    -83.3804156 -0.339881E-06  0.408E-04    2.98      31.6  T
   5    -83.3804156 -0.335659E-08  0.242E-04    2.98      53.3  T
     SCC iter.                  ...        0 min,  0.014 sec
     gradient                   ...        0 min,  0.028 sec
 * total energy  :   -82.3024811 Eh     change       -0.1269729E-04 Eh
   gradient norm :     0.0024953 Eh/α   predicted    -0.9144711E-05 ( -27.98%)
   displ. norm   :     0.0269648 α      lambda       -0.7708618E-05
   maximum displ.:     0.0169127 α      in ANC's #1, #6, #2, ...

........................................................................
.............................. CYCLE   24 ..............................
........................................................................
   1    -83.3803970 -0.833804E+02  0.475E-03    2.98       0.0  T
   2    -83.3803970 -0.591479E-08  0.284E-03    2.98       4.5  T
   3    -83.3803969  0.256282E-07  0.656E-04    2.98      19.7  T
   4    -83.3803970 -0.283426E-07  0.142E-04    2.98      91.0  T
     SCC iter.                  ...        0 min,  0.011 sec
     gradient                   ...        0 min,  0.028 sec
 * total energy  :   -82.3024873 Eh     change       -0.6226341E-05 Eh
   gradient norm :     0.0013690 Eh/α   predicted    -0.3859094E-05 ( -38.02%)
   displ. norm   :     0.0849529 α      lambda       -0.1315172E-04
   maximum displ.:     0.0533159 α      in ANC's #1, #6, #2, ...

........................................................................
.............................. CYCLE   25 ..............................
........................................................................
   1    -83.3802207 -0.833802E+02  0.145E-02    2.98       0.0  T
   2    -83.3802207 -0.416354E-07  0.867E-03    2.98       1.5  T
   3    -83.3802206  0.877745E-07  0.129E-03    2.98      10.0  T
   4    -83.3802207 -0.103031E-06  0.371E-04    2.98      34.8  T
   5    -83.3802207 -0.361644E-08  0.218E-04    2.98      59.2  T
     SCC iter.                  ...        0 min,  0.014 sec
     gradient                   ...        0 min,  0.028 sec
 * total energy  :   -82.3024992 Eh     change       -0.1193441E-04 Eh
   gradient norm :     0.0013893 Eh/α   predicted    -0.6600107E-05 ( -44.70%)
   displ. norm   :     0.0614659 α      lambda       -0.5614371E-05
   maximum displ.:     0.0414158 α      in ANC's #1, #6, #2, ...

........................................................................
.............................. CYCLE   26 ..............................
........................................................................
   1    -83.3801449 -0.833801E+02  0.857E-03    2.98       0.0  T
   2    -83.3801449 -0.103740E-07  0.516E-03    2.98       2.5  T
   3    -83.3801449  0.415272E-07  0.889E-04    2.98      14.5  T
   4    -83.3801449 -0.484293E-07  0.183E-04    2.98      70.7  T
     SCC iter.                  ...        0 min,  0.011 sec
     gradient                   ...        0 min,  0.028 sec
 * total energy  :   -82.3025066 Eh     change       -0.7351579E-05 Eh
   gradient norm :     0.0012753 Eh/α   predicted    -0.2812130E-05 ( -61.75%)
   displ. norm   :     0.0808485 α      lambda       -0.7687360E-05
   maximum displ.:     0.0551121 α      in ANC's #1, #6, #2, ...

........................................................................
.............................. CYCLE   27 ..............................
........................................................................
   1    -83.3801614 -0.833802E+02  0.100E-02    2.98       0.0  T
   2    -83.3801614 -0.189993E-07  0.599E-03    2.98       2.2  T
   3    -83.3801613  0.696066E-07  0.114E-03    2.98      11.4  T
   4    -83.3801614 -0.815845E-07  0.248E-04    2.98      52.0  T
   5    -83.3801614 -0.591783E-09  0.153E-04    2.98      84.2  T
     SCC iter.                  ...        0 min,  0.014 sec
     gradient                   ...        0 min,  0.028 sec
 * total energy  :   -82.3025159 Eh     change       -0.9387269E-05 Eh
   gradient norm :     0.0004891 Eh/α   predicted    -0.3855020E-05 ( -58.93%)
   displ. norm   :     0.0885205 α      lambda       -0.6421731E-05
   maximum displ.:     0.0618376 α      in ANC's #1, #2, #6, ...

........................................................................
.............................. CYCLE   28 ..............................
........................................................................
   1    -83.3801863 -0.833802E+02  0.105E-02    2.98       0.0  T
   2    -83.3801863 -0.258947E-07  0.628E-03    2.98       2.1  T
   3    -83.3801861  0.130111E-06  0.147E-03    2.98       8.8  T
   4    -83.3801863 -0.149921E-06  0.238E-04    2.98      54.3  T
   5    -83.3801863 -0.412570E-09  0.142E-04    2.98      91.2  T
     SCC iter.                  ...        0 min,  0.014 sec
     gradient                   ...        0 min,  0.028 sec
 * total energy  :   -82.3025239 Eh     change       -0.7950082E-05 Eh
   gradient norm :     0.0007277 Eh/α   predicted    -0.3222223E-05 ( -59.47%)
   displ. norm   :     0.0763324 α      lambda       -0.5026372E-05
   maximum displ.:     0.0546425 α      in ANC's #1, #2, #4, ...

........................................................................
.............................. CYCLE   29 ..............................
........................................................................
   1    -83.3802234 -0.833802E+02  0.800E-03    2.98       0.0  T
   2    -83.3802234 -0.166604E-07  0.476E-03    2.98       2.7  T
   3    -83.3802233  0.879204E-07  0.120E-03    2.98      10.7  T
   4    -83.3802234 -0.100835E-06  0.196E-04    2.98      65.9  T
   5    -83.3802234 -0.602597E-09  0.126E-04    2.98     102.8  T
     SCC iter.                  ...        0 min,  0.014 sec
     gradient                   ...        0 min,  0.028 sec
 * total energy  :   -82.3025304 Eh     change       -0.6471403E-05 Eh
   gradient norm :     0.0012523 Eh/α   predicted    -0.2520765E-05 ( -61.05%)
   displ. norm   :     0.0687261 α      lambda       -0.4822872E-05
   maximum displ.:     0.0502012 α      in ANC's #1, #2, #4, ...

........................................................................
.............................. CYCLE   30 ..............................
........................................................................
   1    -83.3803077 -0.833803E+02  0.748E-03    2.98       0.0  T
   2    -83.3803077 -0.120294E-07  0.447E-03    2.98       2.9  T
   3    -83.3803077  0.596534E-07  0.995E-04    2.98      13.0  T
   4    -83.3803077 -0.679522E-07  0.163E-04    2.98      79.1  T
     SCC iter.                  ...        0 min,  0.011 sec
     gradient                   ...        0 min,  0.028 sec
 * total energy  :   -82.3025366 Eh     change       -0.6183202E-05 Eh
   gradient norm :     0.0013714 Eh/α   predicted    -0.2418036E-05 ( -60.89%)
   displ. norm   :     0.0680344 α      lambda       -0.4874154E-05
   maximum displ.:     0.0504311 α      in ANC's #1, #2, #4, ...

........................................................................
.............................. CYCLE   31 ..............................
........................................................................
   1    -83.3803490 -0.833803E+02  0.737E-03    2.98       0.0  T
   2    -83.3803490 -0.132193E-07  0.441E-03    2.98       2.9  T
   3    -83.3803490  0.682059E-07  0.105E-03    2.98      12.3  T
   4    -83.3803490 -0.764139E-07  0.154E-04    2.98      84.0  T
   5    -83.3803490 -0.467111E-09  0.997E-05    2.98     129.5  T
     SCC iter.                  ...        0 min,  0.014 sec
     gradient                   ...        0 min,  0.028 sec
 * total energy  :   -82.3025429 Eh     change       -0.6333043E-05 Eh
   gradient norm :     0.0005939 Eh/α   predicted    -0.2443218E-05 ( -61.42%)
   displ. norm   :     0.0693674 α      lambda       -0.4831383E-05
   maximum displ.:     0.0516328 α      in ANC's #1, #2, #3, ...

........................................................................
.............................. CYCLE   32 ..............................
........................................................................
   1    -83.3803541 -0.833804E+02  0.676E-03    2.98       0.0  T
   2    -83.3803541 -0.786591E-08  0.402E-03    2.98       3.2  T
   3    -83.3803541  0.484846E-08  0.365E-04    2.98      35.4  T
   4    -83.3803541 -0.656929E-08  0.147E-04    2.98      87.7  T
     SCC iter.                  ...        0 min,  0.011 sec
     gradient                   ...        0 min,  0.028 sec
 * total energy  :   -82.3025495 Eh     change       -0.6578513E-05 Eh
   gradient norm :     0.0004592 Eh/α   predicted    -0.2421094E-05 ( -63.20%)
   displ. norm   :     0.0781302 α      lambda       -0.5455624E-05
   maximum displ.:     0.0575488 α      in ANC's #1, #2, #6, ...

........................................................................
.............................. CYCLE   33 ..............................
........................................................................
   1    -83.3803678 -0.833804E+02  0.733E-03    2.98       0.0  T
   2    -83.3803678 -0.852587E-08  0.437E-03    2.98       3.0  T
   3    -83.3803678  0.341360E-08  0.332E-04    2.98      38.9  T
   4    -83.3803678 -0.493357E-08  0.176E-04    2.98      73.2  T
     SCC iter.                  ...        0 min,  0.011 sec
     gradient                   ...        0 min,  0.028 sec
 * total energy  :   -82.3025572 Eh     change       -0.7706819E-05 Eh
   gradient norm :     0.0003019 Eh/α   predicted    -0.2740220E-05 ( -64.44%)
   displ. norm   :     0.0989695 α      lambda       -0.6955127E-05
   maximum displ.:     0.0714209 α      in ANC's #1, #2, #6, ...

........................................................................
.............................. CYCLE   34 ..............................
........................................................................
   1    -83.3803560 -0.833804E+02  0.950E-03    2.98       0.0  T
   2    -83.3803560 -0.112736E-07  0.567E-03    2.98       2.3  T
   3    -83.3803560  0.558039E-08  0.417E-04    2.98      31.0  T
   4    -83.3803561 -0.883772E-08  0.211E-04    2.98      61.2  T
     SCC iter.                  ...        0 min,  0.011 sec
     gradient                   ...        0 min,  0.028 sec
 * total energy  :   -82.3025667 Eh     change       -0.9563126E-05 Eh
   gradient norm :     0.0004249 Eh/α   predicted    -0.3493069E-05 ( -63.47%)
   displ. norm   :     0.1225177 α      lambda       -0.7795978E-05
   maximum displ.:     0.0880621 α      in ANC's #1, #2, #6, ...

........................................................................
.............................. CYCLE   35 ..............................
........................................................................
   1    -83.3803013 -0.833803E+02  0.115E-02    2.98       0.0  T
   2    -83.3803013 -0.138312E-07  0.690E-03    2.98       1.9  T
   3    -83.3803013  0.145340E-07  0.622E-04    2.98      20.7  T
   4    -83.3803013 -0.210220E-07  0.222E-04    2.98      58.2  T
     SCC iter.                  ...        0 min,  0.011 sec
     gradient                   ...        0 min,  0.027 sec
 * total energy  :   -82.3025770 Eh     change       -0.1031293E-04 Eh
   gradient norm :     0.0002163 Eh/α   predicted    -0.3928476E-05 ( -61.91%)
   displ. norm   :     0.1198106 α      lambda       -0.6382010E-05
   maximum displ.:     0.0868114 α      in ANC's #1, #2, #6, ...

........................................................................
.............................. CYCLE   36 ..............................
........................................................................
   1    -83.3802882 -0.833803E+02  0.114E-02    2.98       0.0  T
   2    -83.3802882 -0.109256E-07  0.685E-03    2.98       1.9  T
   3    -83.3802882  0.179313E-09  0.401E-04    2.98      32.2  T
   4    -83.3802883 -0.490826E-08  0.216E-04    2.98      59.8  T
     SCC iter.                  ...        0 min,  0.011 sec
     gradient                   ...        0 min,  0.028 sec
 * total energy  :   -82.3025855 Eh     change       -0.8401774E-05 Eh
   gradient norm :     0.0002030 Eh/α   predicted    -0.3212327E-05 ( -61.77%)
   displ. norm   :     0.0981446 α      lambda       -0.4581082E-05
   maximum displ.:     0.0720548 α      in ANC's #1, #2, #6, ...

........................................................................
.............................. CYCLE   37 ..............................
........................................................................
   1    -83.3802784 -0.833803E+02  0.878E-03    2.98       0.0  T
   2    -83.3802784 -0.728328E-08  0.528E-03    2.98       2.4  T
   3    -83.3802784  0.183308E-07  0.639E-04    2.98      20.2  T
   4    -83.3802784 -0.221189E-07  0.184E-04    2.98      70.1  T
     SCC iter.                  ...        0 min,  0.011 sec
     gradient                   ...        0 min,  0.027 sec
 * total energy  :   -82.3025917 Eh     change       -0.6292425E-05 Eh
   gradient norm :     0.0002312 Eh/α   predicted    -0.2304643E-05 ( -63.37%)
   displ. norm   :     0.0836832 α      lambda       -0.3922044E-05
   maximum displ.:     0.0619225 α      in ANC's #1, #2, #3, ...

........................................................................
.............................. CYCLE   38 ..............................
........................................................................
   1    -83.3802923 -0.833803E+02  0.737E-03    2.98       0.0  T
   2    -83.3802923 -0.582590E-08  0.444E-03    2.98       2.9  T
   3    -83.3802923  0.389611E-07  0.842E-04    2.98      15.3  T
   4    -83.3802923 -0.440581E-07  0.160E-04    2.98      80.9  T
     SCC iter.                  ...        0 min,  0.011 sec
     gradient                   ...        0 min,  0.028 sec
 * total energy  :   -82.3025973 Eh     change       -0.5580920E-05 Eh
   gradient norm :     0.0001884 Eh/α   predicted    -0.1970638E-05 ( -64.69%)
   displ. norm   :     0.0881126 α      lambda       -0.4371774E-05
   maximum displ.:     0.0649996 α      in ANC's #1, #2, #5, ...

........................................................................
.............................. CYCLE   39 ..............................
........................................................................
   1    -83.3802931 -0.833803E+02  0.780E-03    2.98       0.0  T
   2    -83.3802932 -0.920910E-08  0.471E-03    2.98       2.7  T
   3    -83.3802931  0.922529E-07  0.127E-03    2.98      10.2  T
   4    -83.3802932 -0.102703E-06  0.185E-04    2.98      69.6  T
   5    -83.3802932 -0.456865E-09  0.120E-04    2.98     107.5  T
     SCC iter.                  ...        0 min,  0.014 sec
     gradient                   ...        0 min,  0.027 sec
 * total energy  :   -82.3026035 Eh     change       -0.6224761E-05 Eh
   gradient norm :     0.0001742 Eh/α   predicted    -0.2196030E-05 ( -64.72%)
   displ. norm   :     0.1067558 α      lambda       -0.5286205E-05
   maximum displ.:     0.0780977 α      in ANC's #1, #2, #6, ...

........................................................................
.............................. CYCLE   40 ..............................
........................................................................
   1    -83.3802715 -0.833803E+02  0.948E-03    2.98       0.0  T
   2    -83.3802716 -0.188917E-07  0.570E-03    2.98       2.3  T
   3    -83.3802714  0.143505E-06  0.155E-03    2.98       8.3  T
   4    -83.3802716 -0.161849E-06  0.227E-04    2.98      56.9  T
   5    -83.3802716 -0.647617E-09  0.145E-04    2.98      88.9  T
     SCC iter.                  ...        0 min,  0.013 sec
     gradient                   ...        0 min,  0.027 sec
 * total energy  :   -82.3026109 Eh     change       -0.7338231E-05 Eh
   gradient norm :     0.0001599 Eh/α   predicted    -0.2659147E-05 ( -63.76%)
   displ. norm   :     0.1264382 α      lambda       -0.5741683E-05
   maximum displ.:     0.0921399 α      in ANC's #1, #2, #6, ...

........................................................................
.............................. CYCLE   41 ..............................
........................................................................
   1    -83.3802562 -0.833803E+02  0.116E-02    2.98       0.0  T
   2    -83.3802563 -0.306907E-07  0.695E-03    2.98       1.9  T
   3    -83.3802560  0.244783E-06  0.204E-03    2.98       6.3  T
   4    -83.3802563 -0.276912E-06  0.263E-04    2.98      49.0  T
   5    -83.3802563 -0.482999E-09  0.172E-04    2.98      75.1  T
     SCC iter.                  ...        0 min,  0.013 sec
     gradient                   ...        0 min,  0.027 sec
 * total energy  :   -82.3026187 Eh     change       -0.7763171E-05 Eh
   gradient norm :     0.0001943 Eh/α   predicted    -0.2893422E-05 ( -62.73%)
   displ. norm   :     0.1296355 α      lambda       -0.5111641E-05
   maximum displ.:     0.0946040 α      in ANC's #1, #2, #6, ...

........................................................................
.............................. CYCLE   42 ..............................
........................................................................
   1    -83.3802251 -0.833802E+02  0.117E-02    2.98       0.0  T
   2    -83.3802252 -0.294871E-07  0.704E-03    2.98       1.8  T
   3    -83.3802250  0.200656E-06  0.182E-03    2.98       7.1  T
   4    -83.3802252 -0.228002E-06  0.269E-04    2.98      48.0  T
   5    -83.3802252 -0.477868E-09  0.175E-04    2.98      73.8  T
     SCC iter.                  ...        0 min,  0.013 sec
     gradient                   ...        0 min,  0.027 sec
 * total energy  :   -82.3026255 Eh     change       -0.6841136E-05 Eh
   gradient norm :     0.0001702 Eh/α   predicted    -0.2575589E-05 ( -62.35%)
   displ. norm   :     0.1126175 α      lambda       -0.3869995E-05
   maximum displ.:     0.0826143 α      in ANC's #1, #2, #6, ...
 * RMSD in coord.:     0.2193795 α      energy gain  -0.1864929E-03 Eh

generating ANC from model Hessian ...
Using Lindh-Hessian (1995)
 Shifting diagonal of input Hessian by    9.8924597647787015E-003
 Lowest  eigenvalues of input Hessian
    0.000000    0.000000    0.000000    0.000000    0.000000    0.000000
    0.010000    0.010030    0.010115    0.010501    0.011094    0.011792
    0.012429    0.013194    0.013215    0.013904    0.014736    0.015125
 Highest eigenvalues
    1.730254    1.838700    1.889638    1.928859    8.738299    8.961329


........................................................................
.............................. CYCLE   43 ..............................
........................................................................
   1    -83.3802298 -0.833802E+02  0.103E-02    2.98       0.0  T
   2    -83.3802298 -0.226165E-07  0.620E-03    2.98       2.1  T
   3    -83.3802296  0.145347E-06  0.155E-03    2.98       8.3  T
   4    -83.3802298 -0.165555E-06  0.225E-04    2.98      57.3  T
   5    -83.3802298 -0.255554E-09  0.142E-04    2.98      90.8  T
     SCC iter.                  ...        0 min,  0.013 sec
     gradient                   ...        0 min,  0.027 sec
 * total energy  :   -82.3026307 Eh     change       -0.5243364E-05 Eh
   gradient norm :     0.0001887 Eh/α   predicted     0.0000000E+00 (-100.00%)
   displ. norm   :     0.0115064 α      lambda       -0.2781410E-06
   maximum displ.:     0.0092885 α      in ANC's #1, #3, #24, ...

........................................................................
.............................. CYCLE   44 ..............................
........................................................................
   1    -83.3802923 -0.833803E+02  0.137E-03    2.98       0.0  T
   2    -83.3802923 -0.710045E-09  0.823E-04    2.98      15.7  T
   3    -83.3802923  0.392139E-08  0.265E-04    2.98      48.6  T
     SCC iter.                  ...        0 min,  0.008 sec
     gradient                   ...        0 min,  0.027 sec
 * total energy  :   -82.3026317 Eh     change       -0.1008418E-05 Eh
   gradient norm :     0.0002282 Eh/α   predicted    -0.3611370E-06 ( -64.19%)
   displ. norm   :     0.0313006 α      lambda       -0.1608239E-05
   maximum displ.:     0.0219767 α      in ANC's #1, #3, #24, ...

   *** GEOMETRY OPTIMIZATION CONVERGED AFTER 44 ITERATIONS ***

------------------------------------------------------------------------
 total energy gain   :        -0.1762368 Eh     -110.5903 kcal/mol
 total RMSD          :         0.2412286 a0        0.1277 Å
 total power (kW/mol):       -10.5161303 (step) -205.0885 (real)
------------------------------------------------------------------------

 ANCopt (total)                0 d,  0 h,  0 min,  2.256 sec
 optimizer setup                ...        0 min,  0.000 sec (  0.004%)
 model hessian                  ...        0 min,  0.097 sec (  4.312%)
 ANC generation                 ...        0 min,  0.008 sec (  0.352%)
 coordinate transformation      ...        0 min,  0.001 sec (  0.030%)
 single point calculation       ...        0 min,  2.135 sec ( 94.642%)
 optimization log               ...        0 min,  0.009 sec (  0.395%)
 hessian update                 ...        0 min,  0.001 sec (  0.044%)
 rational function              ...        0 min,  0.003 sec (  0.145%)

================
 final structure:
================
60
 xtb: 6.5.0 (homebrew)
C            3.45478575039086      -37.74304639061798       15.93268122989150
C            3.71205273586580      -38.16335355154119       17.37817856130457
O            3.24114905766093      -37.14521415700457       18.25976221160745
C            2.89841010928942      -39.42705910373513       17.68488841494585
C            5.22936733269216      -38.30048599141904       17.76891920846693
C            5.74774581889601      -39.73506757327743       17.84197720571748
C            6.15751759515937      -37.47787390427298       16.86627220440625
O            5.28525367000628      -37.70968301744803       19.06743051726500
B            4.14706707379408      -36.98219170483190       19.27225559312818
C            3.90454807288968      -36.06751638669234       20.51187979337926
C            4.93336497441797      -35.88505163095638       21.40716837881269
C            4.98487898692612      -34.93695394878583       22.45321928971529
H            5.93011327174609      -34.85788387530959       22.97424610414312
C            3.82086566430869      -34.26996306500489       23.12717168849363
H            4.06407868834016      -33.88760494431541       24.11395219459253
C            2.46298461441668      -34.87766794414922       23.12713074216972
B            1.69840760227054      -34.89701337125344       24.48749437274440
O            2.20082129826635      -34.37146049351987       25.64656897836135
C            1.33478979511851      -34.72362315372108       26.72446155506872
C            1.18001794354752      -33.53061617214711       27.66499418356905
C            2.01271932083873      -35.87386540287174       27.47994440332901
C            0.01624967128572      -35.16621422540185       25.99122629153681
C           -1.01398661419141      -34.03511839031511       25.88056370830937
C           -0.66170831244191      -36.40323344017772       26.57631327871579
O            0.46294499279915      -35.45215911720153       24.66601010098934
C            1.91712254355244      -35.41854360149178       22.03723125593572
C            2.51932821678964      -35.50809409283326       20.68484054446201
H            1.82957341579963      -35.98880606262379       19.99385449834929
C            3.16440504019087      -34.32568353408077       20.05673590318163
C            3.86217147798856      -33.33871071091358       20.68712959286983
C            4.33651151651264      -33.40310627792572       22.02093558468878
H            4.97322110156747      -32.58607695023179       22.33482494760435
H            2.38148645343562      -37.68570266186785       15.76887444724882
H            3.87632937407089      -38.47421808352471       15.24830187623295
H            3.87885815715219      -36.76591121442102       15.72536203933418
H            1.84416284326197      -39.20221354737814       17.53974996464035
H            3.03890074072767      -39.72194930136310       18.72175217622917
H            3.17889959795007      -40.24455608821169       17.02770550215146
H            5.63424950610027      -40.22586846776519       16.87916857237245
H            5.22362794900770      -40.30288522236791       18.60373659777793
H            6.80247687570782      -39.71450712099534       18.10457548214331
H            6.19835003673302      -37.89131493080320       15.86305825040372
H            7.15635303781912      -37.49175373279722       17.29634382038607
H            5.82498078438486      -36.44368484766763       16.82627824867769
H            5.87538377285115      -36.34761344494284       21.14114107421937
H            2.14047876693282      -33.32149978850396       28.12959944602555
H            0.45541916731353      -33.75678806866384       28.44252334070827
H            0.86764520072368      -32.64283630374099       27.12481785455290
H            2.99075438942592      -35.53689985536601       27.81598930707588
H            2.16035711539799      -36.72266340025606       26.81696626246967
H            1.42742817330092      -36.17680104278190       28.34286448257147
H           -1.43159134223072      -33.78734847574692       26.85182514403248
H           -1.81585039873409      -34.36280321482138       25.22303568607548
H           -0.55796163082457      -33.15291228050146       25.43855370029354
H           -0.93367958319417      -36.22810822246454       27.61371847284741
H           -0.01528153352484      -37.27235474140236       26.51181324348513
H           -1.56355772063532      -36.61200528932467       26.00629259551384
H            0.93002057589621      -35.85030675315076       22.13099505420848
H            2.99729070062797      -34.22528863771715       18.99243697428559
H            4.29139656363026      -32.55728307537824       20.07206784627019

 Bond Distances (Angstroems)
 ---------------------------
C1-C2=1.5272         C1-H33=1.0872        C1-H34=1.0866        C1-H35=1.0852        C2-C1=1.5272         C2-O3=1.4267         
C2-C4=1.5340         C2-C5=1.5728         O3-C2=1.4267         O3-B9=1.3684         C4-C2=1.5340         C4-H36=1.0877        
C4-H37=1.0871        C4-H38=1.0858        C5-C2=1.5728         C5-C6=1.5271         C5-C7=1.5339         C5-O8=1.4277         
C6-C5=1.5271         C6-H39=1.0866        C6-H40=1.0851        C6-H41=1.0871        C7-C5=1.5339         C7-H42=1.0858        
C7-H43=1.0876        C7-H44=1.0871        O8-C5=1.4277         O8-B9=1.3663         B9-O3=1.3684         B9-O8=1.3663         
B9-C10=1.5595        C10-B9=1.5595        C10-C11=1.3760       C10-C27=1.5039       C10-C29=1.9465       C11-C10=1.3760       
C11-C12=1.4127       C11-H45=1.0827       C12-C11=1.4127       C12-H13=1.0822       C12-C14=1.5013       C12-C31=1.7204       
H13-C12=1.0822       C14-C12=1.5013       C14-H15=1.0859       C14-C16=1.4877       C14-C31=1.4970       H15-C14=1.0859       
C16-C14=1.4877       C16-B17=1.5606       C16-C26=1.3336       B17-C16=1.5606       B17-O18=1.3682       B17-O25=1.3662       
O18-B17=1.3682       O18-C19=1.4268       C19-O18=1.4268       C19-C20=1.5270       C19-C21=1.5341       C19-C22=1.5723       
C20-C19=1.5270       C20-H46=1.0872       C20-H47=1.0866       C20-H48=1.0851       C21-C19=1.5341       C21-H49=1.0877       
C21-H50=1.0871       C21-H51=1.0858       C22-C19=1.5723       C22-C23=1.5340       C22-C24=1.5271       C22-O25=1.4274       
C23-C22=1.5340       C23-H52=1.0859       C23-H53=1.0875       C23-H54=1.0870       C24-C22=1.5271       C24-H55=1.0867       
C24-H56=1.0851       C24-H57=1.0871       O25-B17=1.3662       O25-C22=1.4274       C26-C16=1.3336       C26-C27=1.4831       
C26-H58=1.0815       C27-C10=1.5039       C27-C26=1.4831       C27-H28=1.0883       C27-C29=1.4862       H28-C27=1.0883       
C29-C10=1.9465       C29-C27=1.4862       C29-C30=1.3632       C29-H59=1.0820       C30-C29=1.3632       C30-C31=1.4171       
C30-H60=1.0831       C31-C12=1.7204       C31-C14=1.4970       C31-C30=1.4171       C31-H32=1.0823       H32-C31=1.0823       
H33-C1=1.0872        H34-C1=1.0866        H35-C1=1.0852        H36-C4=1.0877        H37-C4=1.0871        H38-C4=1.0858        
H39-C6=1.0866        H40-C6=1.0851        H41-C6=1.0871        H42-C7=1.0858        H43-C7=1.0876        H44-C7=1.0871        
H45-C11=1.0827       H46-C20=1.0872       H47-C20=1.0866       H48-C20=1.0851       H49-C21=1.0877       H50-C21=1.0871       
H51-C21=1.0858       H52-C23=1.0859       H53-C23=1.0875       H54-C23=1.0870       H55-C24=1.0867       H56-C24=1.0851       
H57-C24=1.0871       H58-C26=1.0815       H59-C29=1.0820       H60-C30=1.0831       
 C  H  Rav=1.0858 sigma=0.0019  Rmin=1.0815  Rmax=1.0883    32
 C  B  Rav=1.5601 sigma=0.0005  Rmin=1.5595  Rmax=1.5606     2
 C  C  Rav=1.5182 sigma=0.1208  Rmin=1.3336  Rmax=1.9465    23
 O  B  Rav=1.3673 sigma=0.0010  Rmin=1.3662  Rmax=1.3684     4
 O  C  Rav=1.4272 sigma=0.0004  Rmin=1.4267  Rmax=1.4277     4

 selected bond angles (degree)
 --------------------
H33-C1-C2=108.87               H34-C1-C2=110.22               H34-C1-H33=108.88              H35-C1-C2=111.27               
H35-C1-H33=108.03              H35-C1-H34=109.51              O3-C2-C1=109.44                C4-C2-C1=109.06                
C4-C2-O3=106.81                C5-C2-C1=114.94                C5-C2-O3=103.13                C5-C2-C4=112.97                
B9-O3-C2=108.89                H36-C4-C2=108.49               H37-C4-C2=110.22               H37-C4-H36=107.98              
H38-C4-C2=111.24               H38-C4-H36=108.98              H38-C4-H37=109.86              C6-C5-C2=114.91                
C7-C5-C2=113.00                C7-C5-C6=109.06                O8-C5-C2=103.16                O8-C5-C6=109.39                
O8-C5-C7=106.83                H39-C6-C5=110.27               H40-C6-C5=111.17               H40-C6-H39=109.59              
H41-C6-C5=108.85               H41-C6-H39=108.90              H41-C6-H40=108.00              H42-C7-C5=111.24               
H43-C7-C5=108.43               H43-C7-H42=109.02              H44-C7-C5=110.29               H44-C7-H42=109.86              
H44-C7-H43=107.92              B9-O8-C5=108.91                O8-B9-O3=112.16                C10-B9-O3=123.72               
C10-B9-O8=124.13               C11-C10-B9=118.60              C27-C10-B9=116.93              C27-C10-C11=124.37             
C29-C10-B9=113.46              C29-C10-C11=108.53             C29-C10-C27= 48.99             

 selected dihedral angles (degree)
 ---------------------------------
O3-C2-C1-H33=295.07           O3-C2-C1-H34=175.71           O3-C2-C1-H35= 54.02           C4-C2-C1-H33= 51.59           
C4-C2-C1-H34=292.23           C4-C2-C1-H35=170.54           C5-C2-C1-H33=179.61           C5-C2-C1-H34= 60.25           
C5-C2-C1-H35=298.56           B9-O3-C2-C1=221.20            B9-O3-C2-C4=103.26            B9-O3-C2-C5=343.98            
H36-C4-C2-C1=300.14           H36-C4-C2-O3= 58.32           H36-C4-C2-C5=171.02           H37-C4-C2-C1=182.11           
H37-C4-C2-O3=300.29           H37-C4-C2-C5= 52.98           H38-C4-C2-C1= 60.00           H38-C4-C2-O3=178.19           
H38-C4-C2-C5=290.88           C6-C5-C2-C1=257.12            C6-C5-C2-O3=138.08            C6-C5-C2-C4= 23.15            
C7-C5-C2-C1= 23.16            C7-C5-C2-O3=264.12            C7-C5-C2-C4=149.19            O8-C5-C2-C1=138.14            
O8-C5-C2-O3= 19.10            O8-C5-C2-C4=264.17            H39-C6-C5-C2= 59.84           H39-C6-C5-C7=291.79           
H39-C6-C5-O8=175.28           H40-C6-C5-C2=298.08           H40-C6-C5-C7=170.03           H40-C6-C5-O8= 53.52           
H41-C6-C5-C2=179.24           H41-C6-C5-C7= 51.19           H41-C6-C5-O8=294.68           H42-C7-C5-C2=290.58           
H42-C7-C5-C6= 59.70           H42-C7-C5-O8=177.82           H43-C7-C5-C2=170.71           H43-C7-C5-C6=299.82           
H43-C7-C5-O8= 57.95           H44-C7-C5-C2= 52.74           H44-C7-C5-C6=181.86           H44-C7-C5-O8=299.98           
B9-O8-C5-C2=344.26            B9-O8-C5-C6=221.51            B9-O8-C5-C7=103.60            O8-B9-O3-C2=  7.04            
C10-B9-O3-C2=186.88           O3-B9-O8-C5=  6.55            C10-B9-O8-C5=186.72           C11-C10-B9-O3=185.82          
C11-C10-B9-O8=  5.64          C27-C10-B9-O3=  9.37          C27-C10-B9-O8=189.19          C29-C10-B9-O3=314.95          
C29-C10-B9-O8=134.77          
           -------------------------------------------------
          |                Final Singlepoint                |
           -------------------------------------------------

          ...................................................
          :                      SETUP                      :
          :.................................................:
          :  # basis functions                 144          :
          :  # atomic orbitals                 144          :
          :  # shells                           88          :
          :  # electrons                       150          :
          :  max. iterations                   250          :
          :  Hamiltonian                  GFN2-xTB          :
          :  restarted?                      false          :
          :  GBSA solvation                  false          :
          :  PC potential                    false          :
          :  electronic temp.          300.0000000     K    :
          :  accuracy                    1.0000000          :
          :  -> integral cutoff          0.2500000E+02      :
          :  -> integral neglect         0.1000000E-07      :
          :  -> SCF convergence          0.1000000E-05 Eh   :
          :  -> wf. convergence          0.1000000E-03 e    :
          :  Broyden damping             0.4000000          :
          ...................................................

 iter      E             dE          RMSdq      gap      omega  full diag
   1    -83.3802923 -0.833803E+02  0.475E-05    2.98       0.0  T
   2    -83.3802923  0.348166E-11  0.437E-05    2.98     295.4  T
   3    -83.3802923 -0.100229E-09  0.139E-05    2.98     926.9  T

   *** convergence criteria satisfied after 3 iterations ***

         #    Occupation            Energy/Eh            Energy/eV
      -------------------------------------------------------------
         1        2.0000           -0.6891082             -18.7516
       ...           ...                  ...                  ...
        69        2.0000           -0.4076870             -11.0937
        70        2.0000           -0.3982726             -10.8376
        71        2.0000           -0.3973441             -10.8123
        72        2.0000           -0.3950588             -10.7501
        73        2.0000           -0.3820779             -10.3969
        74        2.0000           -0.3614260              -9.8349
        75        2.0000           -0.3342033              -9.0941 (HOMO)
        76                         -0.2246586              -6.1133 (LUMO)
        77                         -0.2089106              -5.6847
        78                         -0.1750684              -4.7639
        79                         -0.1056246              -2.8742
        80                         -0.0912170              -2.4821
       ...                                ...                  ...
       144                          0.6958302              18.9345
      -------------------------------------------------------------
                  HL-Gap            0.1095447 Eh            2.9809 eV
             Fermi-level           -0.2794309 Eh           -7.6037 eV

 SCC (total)                   0 d,  0 h,  0 min,  0.041 sec
 SCC setup                      ...        0 min,  0.000 sec (  0.536%)
 Dispersion                     ...        0 min,  0.000 sec (  0.892%)
 classical contributions        ...        0 min,  0.000 sec (  0.407%)
 integral evaluation            ...        0 min,  0.006 sec ( 14.056%)
 iterations                     ...        0 min,  0.008 sec ( 19.501%)
 molecular gradient             ...        0 min,  0.026 sec ( 63.845%)
 printout                       ...        0 min,  0.000 sec (  0.750%)

         :::::::::::::::::::::::::::::::::::::::::::::::::::::
         ::                     SUMMARY                     ::
         :::::::::::::::::::::::::::::::::::::::::::::::::::::
         :: total energy             -82.302631747488 Eh    ::
         :: gradient norm              0.000229600182 Eh/a0 ::
         :: HOMO-LUMO gap              2.980863431528 eV    ::
         ::.................................................::
         :: SCC energy               -83.380292314949 Eh    ::
         :: -> isotropic ES            0.147800197600 Eh    ::
         :: -> anisotropic ES          0.011572721847 Eh    ::
         :: -> anisotropic XC          0.026263367763 Eh    ::
         :: -> dispersion             -0.061097931689 Eh    ::
         :: repulsion energy           1.076962526939 Eh    ::
         :: add. restraining           0.000054118109 Eh    ::
         :: total charge              -0.000000000000 e     ::
         :::::::::::::::::::::::::::::::::::::::::::::::::::::

           -------------------------------------------------
          |                Property Printout                |
           -------------------------------------------------

    * Orbital Energies and Occupations

         #    Occupation            Energy/Eh            Energy/eV
      -------------------------------------------------------------
         1        2.0000           -0.6891082             -18.7516
       ...           ...                  ...                  ...
        63        2.0000           -0.4361852             -11.8692
        64        2.0000           -0.4325599             -11.7706
        65        2.0000           -0.4313281             -11.7370
        66        2.0000           -0.4212431             -11.4626
        67        2.0000           -0.4194438             -11.4136
        68        2.0000           -0.4145855             -11.2814
        69        2.0000           -0.4076870             -11.0937
        70        2.0000           -0.3982726             -10.8376
        71        2.0000           -0.3973441             -10.8123
        72        2.0000           -0.3950588             -10.7501
        73        2.0000           -0.3820779             -10.3969
        74        2.0000           -0.3614260              -9.8349
        75        2.0000           -0.3342033              -9.0941 (HOMO)
        76                         -0.2246586              -6.1133 (LUMO)
        77                         -0.2089106              -5.6847
        78                         -0.1750684              -4.7639
        79                         -0.1056246              -2.8742
        80                         -0.0912170              -2.4821
        81                         -0.0302623              -0.8235
        82                          0.0078560               0.2138
        83                          0.0092234               0.2510
        84                          0.0277626               0.7555
        85                          0.0290175               0.7896
        86                          0.0571154               1.5542
       ...                                ...                  ...
       144                          0.6958302              18.9345
      -------------------------------------------------------------
                  HL-Gap            0.1095447 Eh            2.9809 eV
             Fermi-level           -0.2794309 Eh           -7.6037 eV

     #   Z          covCN         q      C6AA      α(0)
     1   6 C        3.755    -0.117    22.793     6.807
     2   6 C        3.858     0.129    18.449     6.109
     3   8 O        1.638    -0.375    20.371     6.092
     4   6 C        3.755    -0.116    22.779     6.805
     5   6 C        3.859     0.129    18.450     6.109
     6   6 C        3.755    -0.118    22.808     6.810
     7   6 C        3.755    -0.116    22.772     6.804
     8   8 O        1.638    -0.372    20.333     6.087
     9   5 B        2.658     0.435    15.532     6.636
    10   6 C        3.464    -0.069    24.184     7.397
    11   6 C        2.893    -0.054    29.330     8.879
    12   6 C        3.801    -0.013    20.813     6.495
    13   1 H        0.925     0.030     2.584     2.514
    14   6 C        3.865    -0.016    20.817     6.488
    15   1 H        0.925     0.044     2.397     2.421
    16   6 C        2.863    -0.083    30.082     8.990
    17   5 B        2.661     0.432    15.557     6.639
    18   8 O        1.638    -0.373    20.336     6.087
    19   6 C        3.859     0.129    18.455     6.109
    20   6 C        3.755    -0.117    22.799     6.808
    21   6 C        3.755    -0.116    22.779     6.805
    22   6 C        3.860     0.129    18.456     6.110
    23   6 C        3.755    -0.116    22.785     6.806
    24   6 C        3.755    -0.118    22.806     6.809
    25   8 O        1.638    -0.370    20.288     6.080
    26   6 C        2.896    -0.027    28.664     8.778
    27   6 C        3.864    -0.015    20.793     6.485
    28   1 H        0.925     0.043     2.403     2.424
    29   6 C        3.491    -0.016    22.636     7.082
    30   6 C        2.888    -0.061    29.504     8.905
    31   6 C        3.803    -0.011    20.765     6.488
    32   1 H        0.925     0.030     2.583     2.513
    33   1 H        0.925     0.054     2.266     2.354
    34   1 H        0.925     0.040     2.453     2.449
    35   1 H        0.925     0.051     2.304     2.374
    36   1 H        0.925     0.052     2.292     2.368
    37   1 H        0.925     0.044     2.398     2.422
    38   1 H        0.925     0.042     2.417     2.431
    39   1 H        0.925     0.040     2.447     2.446
    40   1 H        0.925     0.052     2.292     2.367
    41   1 H        0.925     0.055     2.263     2.353
    42   1 H        0.925     0.043     2.412     2.429
    43   1 H        0.925     0.052     2.290     2.366
    44   1 H        0.925     0.043     2.406     2.426
    45   1 H        0.925     0.031     2.575     2.510
    46   1 H        0.925     0.054     2.270     2.356
    47   1 H        0.925     0.040     2.453     2.449
    48   1 H        0.925     0.052     2.295     2.369
    49   1 H        0.925     0.052     2.296     2.370
    50   1 H        0.925     0.044     2.398     2.422
    51   1 H        0.925     0.042     2.417     2.431
    52   1 H        0.925     0.043     2.414     2.430
    53   1 H        0.925     0.053     2.288     2.365
    54   1 H        0.925     0.044     2.396     2.421
    55   1 H        0.925     0.040     2.450     2.448
    56   1 H        0.925     0.052     2.294     2.368
    57   1 H        0.925     0.055     2.263     2.352
    58   1 H        0.925     0.037     2.484     2.465
    59   1 H        0.925     0.030     2.591     2.517
    60   1 H        0.925     0.019     2.750     2.593

 Mol. C6AA /au·bohr⁶  :      32417.448664
 Mol. C8AA /au·bohr⁸  :     749501.581786
 Mol. α(0) /au        :        270.024193


Wiberg/Mayer (AO) data.
largest (>0.10) Wiberg bond orders for each atom

 ---------------------------------------------------------------------------
     #   Z sym  total        # sym  WBO       # sym  WBO       # sym  WBO
 ---------------------------------------------------------------------------
     1   6 C    3.994 --     2 C    0.997    34 H    0.985    33 H    0.983
                            35 H    0.982
     2   6 C    3.943 --     1 C    0.997     4 C    0.991     3 O    0.953
                             5 C    0.936
     3   8 O    2.227 --     9 B    1.125     2 C    0.953
     4   6 C    3.994 --     2 C    0.991    38 H    0.984    37 H    0.984
                            36 H    0.983
     5   6 C    3.942 --     6 C    0.997     7 C    0.991     8 O    0.952
                             2 C    0.936
     6   6 C    3.994 --     5 C    0.997    39 H    0.984    41 H    0.983
                            40 H    0.982
     7   6 C    3.995 --     5 C    0.991    42 H    0.984    44 H    0.984
                            43 H    0.983
     8   8 O    2.231 --     9 B    1.130     5 C    0.952
     9   5 B    3.379 --     8 O    1.130     3 O    1.125    10 C    1.004
    10   6 C    3.951 --    11 C    1.523     9 B    1.004    27 C    0.924
                            29 C    0.298
    11   6 C    3.985 --    10 C    1.523    12 C    1.276    45 H    0.963
                            30 C    0.103
    12   6 C    3.950 --    11 C    1.276    13 H    0.973    14 C    0.925
                            31 C    0.628
    13   1 H    0.999 --    12 C    0.973
    14   6 C    3.964 --    16 C    1.017    15 H    0.968    31 C    0.937
                            12 C    0.925
    15   1 H    0.998 --    14 C    0.968
    16   6 C    3.978 --    26 C    1.834    14 C    1.017    17 B    0.998
    17   5 B    3.376 --    25 O    1.133    18 O    1.127    16 C    0.998
    18   8 O    2.232 --    17 B    1.127    19 C    0.953
    19   6 C    3.943 --    20 C    0.997    21 C    0.991    18 O    0.953
                            22 C    0.936
    20   6 C    3.994 --    19 C    0.997    47 H    0.984    46 H    0.983
                            48 H    0.982
    21   6 C    3.994 --    19 C    0.991    51 H    0.984    50 H    0.984
                            49 H    0.983
    22   6 C    3.942 --    24 C    0.996    23 C    0.991    25 O    0.953
                            19 C    0.936
    23   6 C    3.995 --    22 C    0.991    52 H    0.984    54 H    0.984
                            53 H    0.983
    24   6 C    3.994 --    22 C    0.996    55 H    0.985    57 H    0.983
                            56 H    0.982
    25   8 O    2.236 --    17 B    1.133    22 C    0.953
    26   6 C    3.988 --    16 C    1.834    27 C    1.022    58 H    0.967
    27   6 C    3.981 --    26 C    1.022    28 H    0.968    29 C    0.955
                            10 C    0.924
    28   1 H    0.998 --    27 C    0.968
    29   6 C    3.966 --    30 C    1.575    59 H    0.971    27 C    0.955
                            10 C    0.298
    30   6 C    3.979 --    29 C    1.575    31 C    1.253    60 H    0.965
                            11 C    0.103
    31   6 C    3.943 --    30 C    1.253    32 H    0.974    14 C    0.937
                            12 C    0.628
    32   1 H    0.999 --    31 C    0.974
    33   1 H    0.997 --     1 C    0.983
    34   1 H    0.998 --     1 C    0.985
    35   1 H    0.997 --     1 C    0.982
    36   1 H    0.997 --     4 C    0.983
    37   1 H    0.998 --     4 C    0.984
    38   1 H    0.998 --     4 C    0.984
    39   1 H    0.998 --     6 C    0.984
    40   1 H    0.997 --     6 C    0.982
    41   1 H    0.997 --     6 C    0.983
    42   1 H    0.998 --     7 C    0.984
    43   1 H    0.997 --     7 C    0.983
    44   1 H    0.998 --     7 C    0.984
    45   1 H    0.999 --    11 C    0.963
    46   1 H    0.997 --    20 C    0.983
    47   1 H    0.998 --    20 C    0.984
    48   1 H    0.997 --    20 C    0.982
    49   1 H    0.997 --    21 C    0.983
    50   1 H    0.998 --    21 C    0.984
    51   1 H    0.998 --    21 C    0.984
    52   1 H    0.998 --    23 C    0.984
    53   1 H    0.997 --    23 C    0.983
    54   1 H    0.998 --    23 C    0.984
    55   1 H    0.998 --    24 C    0.985
    56   1 H    0.997 --    24 C    0.982
    57   1 H    0.997 --    24 C    0.983
    58   1 H    0.998 --    26 C    0.967
    59   1 H    0.999 --    29 C    0.971
    60   1 H    0.999 --    30 C    0.965
 ---------------------------------------------------------------------------

Topologies differ in total number of bonds
Writing topology from bond orders to xtbtopo.mol

molecular dipole:
                 x           y           z       tot (Debye)
 q only:       -0.243      -0.432       0.108
   full:       -0.115      -0.495       0.032       1.295
molecular quadrupole (traceless):
                xx          xy          yy          xz          yz          zz
 q only:      -45.545      18.532      48.010     -26.507     -27.421      -2.465
  q+dip:      -44.997       7.603      55.714     -19.268     -21.372     -10.717
   full:      -45.909       6.281      57.505     -20.519     -22.705     -11.596

           -------------------------------------------------
          |                Geometry Summary                 |
           -------------------------------------------------

      molecular mass/u    :      382.1099696
   center of mass at/Å    :        2.9441670     -35.9396700      21.8379641
  moments of inertia/u·Å² :        0.1199657E+04   0.6833389E+04   0.7165050E+04
rotational constants/cm⁻¹ :        0.1405204E-01   0.2466951E-02   0.2352758E-02

 * 60 selected distances

     #   Z          #   Z                                           value/Å
     1   6 C        2   6 C                                       1.5271894
     2   6 C        3   8 O                                       1.4267264
     2   6 C        4   6 C                                       1.5339613
     5   6 C        6   6 C                                       1.5271144
     5   6 C        7   6 C                                       1.5339249
     5   6 C        8   8 O                                       1.4276916
     3   8 O        9   5 B                                       1.3683592
     8   8 O        9   5 B                                       1.3662599
     9   5 B       10   6 C                                       1.5595240
    10   6 C       11   6 C                                       1.3759722
    11   6 C       12   6 C                                       1.4127157
    12   6 C       13   1 H                                       1.0822149
    12   6 C       14   6 C                                       1.5013381
    14   6 C       15   1 H                                       1.0858574
    16   6 C       17   5 B                                       1.5606223 (max)
    17   5 B       18   8 O                                       1.3682396
    18   8 O       19   6 C                                       1.4268433
    19   6 C       20   6 C                                       1.5270305
    19   6 C       21   6 C                                       1.5340797
    22   6 C       23   6 C                                       1.5339528
    22   6 C       24   6 C                                       1.5271446
    17   5 B       25   8 O                                       1.3661709
    22   6 C       25   8 O                                       1.4274101
    16   6 C       26   6 C                                       1.3335641
    10   6 C       27   6 C                                       1.5038960
    26   6 C       27   6 C                                       1.4831156
    27   6 C       28   1 H                                       1.0882590
    27   6 C       29   6 C                                       1.4861812
    29   6 C       30   6 C                                       1.3632278
    14   6 C       31   6 C                                       1.4970271
    30   6 C       31   6 C                                       1.4171041
    31   6 C       32   1 H                                       1.0823413
     1   6 C       33   1 H                                       1.0872408
     1   6 C       34   1 H                                       1.0865939
     1   6 C       35   1 H                                       1.0851783
     4   6 C       36   1 H                                       1.0876848
     4   6 C       37   1 H                                       1.0870991
     4   6 C       38   1 H                                       1.0857556
     6   6 C       39   1 H                                       1.0866313
     6   6 C       40   1 H                                       1.0850779
     6   6 C       41   1 H                                       1.0871239
     7   6 C       42   1 H                                       1.0858357
     7   6 C       43   1 H                                       1.0875784
     7   6 C       44   1 H                                       1.0870729
    11   6 C       45   1 H                                       1.0826512
    20   6 C       46   1 H                                       1.0872318
    20   6 C       47   1 H                                       1.0866227
    20   6 C       48   1 H                                       1.0851362
    21   6 C       49   1 H                                       1.0876694
    21   6 C       50   1 H                                       1.0871040
    21   6 C       51   1 H                                       1.0858025
    23   6 C       52   1 H                                       1.0858787
    23   6 C       53   1 H                                       1.0875230
    23   6 C       54   1 H                                       1.0870232
    24   6 C       55   1 H                                       1.0866678
    24   6 C       56   1 H                                       1.0850806
    24   6 C       57   1 H                                       1.0871255
    26   6 C       58   1 H                                       1.0814720 (min)
    29   6 C       59   1 H                                       1.0820068
    30   6 C       60   1 H                                       1.0831272

 * 5 distinct bonds (by element types)

   Z      Z             #   av. dist./Å        max./Å        min./Å
   1 H    6 C          32     1.0858021     1.0882590     1.0814720
   5 B    6 C           2     1.5600731     1.5606223     1.5595240
   6 C    6 C          18     1.4788078     1.5340797     1.3335641
   5 B    8 O           4     1.3672574     1.3683592     1.3661709
   6 C    8 O           4     1.4271679     1.4276916     1.4267264


optimized geometry written to: xtbopt.xyz


           -------------------------------------------------
          | TOTAL ENERGY              -82.302631747488 Eh   |
          | GRADIENT NORM               0.000229600182 Eh/α |
          | HOMO-LUMO GAP               2.980863431528 eV   |
           -------------------------------------------------

------------------------------------------------------------------------
 * finished run on 2022/07/09 at 18:33:15.747     
------------------------------------------------------------------------
 total:
 * wall-time:     0 d,  0 h,  0 min,  2.378 sec
 *  cpu-time:     0 d,  0 h,  0 min,  2.376 sec
 * ratio c/w:     0.999 speedup
 SCF:
 * wall-time:     0 d,  0 h,  0 min,  0.069 sec
 *  cpu-time:     0 d,  0 h,  0 min,  0.069 sec
 * ratio c/w:     0.999 speedup
 ANC optimizer:
 * wall-time:     0 d,  0 h,  0 min,  2.298 sec
 *  cpu-time:     0 d,  0 h,  0 min,  2.297 sec
 * ratio c/w:     0.999 speedup

