      -----------------------------------------------------------      
     |                   =====================                   |     
     |                           x T B                           |     
     |                   =====================                   |     
     |                         S. Grimme                         |     
     |          Mulliken Center for Theoretical Chemistry        |     
     |                    University of Bonn                     |     
      -----------------------------------------------------------      

   * xtb version 6.5.0 (homebrew) compiled by 'nhattrup@GPGGRP-SHANNON.CHEME.CMU.EDU' on 

   xtb is free software: you can redistribute it and/or modify it under
   the terms of the GNU Lesser General Public License as published by
   the Free Software Foundation, either version 3 of the License, or
   (at your option) any later version.
   
   xtb is distributed in the hope that it will be useful,
   but WITHOUT ANY WARRANTY; without even the implied warranty of
   MERCHANTABILITY or FITNESS FOR A PARTICULAR PURPOSE.  See the
   GNU Lesser General Public License for more details.
   
   Cite this work as:
   * C. Bannwarth, E. Caldeweyher, S. Ehlert, A. Hansen, P. Pracht,
     J. Seibert, S. Spicher, S. Grimme, WIREs Comput. Mol. Sci., 2020, 11,
     e01493. DOI: 10.1002/wcms.1493
   
   for GFN2-xTB:
   * C. Bannwarth, S. Ehlert and S. Grimme., J. Chem. Theory Comput., 2019,
     15, 1652-1671. DOI: 10.1021/acs.jctc.8b01176
   for GFN1-xTB:
   * S. Grimme, C. Bannwarth, P. Shushkov, J. Chem. Theory Comput., 2017,
     13, 1989-2009. DOI: 10.1021/acs.jctc.7b00118
   for GFN0-xTB:
   * P. Pracht, E. Caldeweyher, S. Ehlert, S. Grimme, ChemRxiv, 2019, preprint.
     DOI: 10.26434/chemrxiv.8326202.v1
   for GFN-FF:
   * S. Spicher and S. Grimme, Angew. Chem. Int. Ed., 2020, 59, 15665-15673.
     DOI: 10.1002/anie.202004239
   
   for ALPB and GBSA implicit solvation:
   * S. Ehlert, M. Stahn, S. Spicher, S. Grimme, J. Chem. Theory Comput.,
     2021, 17, 4250-4261. DOI: 10.1021/acs.jctc.1c00471
   
   for DFT-D4:
   * E. Caldeweyher, C. Bannwarth and S. Grimme, J. Chem. Phys., 2017,
     147, 034112. DOI: 10.1063/1.4993215
   * E. Caldeweyher, S. Ehlert, A. Hansen, H. Neugebauer, S. Spicher,
     C. Bannwarth and S. Grimme, J. Chem. Phys., 2019, 150, 154122.
     DOI: 10.1063/1.5090222
   * E. Caldeweyher, J.-M. Mewes, S. Ehlert and S. Grimme, Phys. Chem. Chem. Phys.
     2020, 22, 8499-8512. DOI: 10.1039/D0CP00502A
   
   for sTDA-xTB:
   * S. Grimme and C. Bannwarth, J. Chem. Phys., 2016, 145, 054103.
     DOI: 10.1063/1.4959605
   
   in the mass-spec context:
   * V. Asgeirsson, C. Bauer and S. Grimme, Chem. Sci., 2017, 8, 4879.
     DOI: 10.1039/c7sc00601b
   * J. Koopman and S. Grimme, ACS Omega 2019, 4, 12, 15120-15133.
     DOI: 10.1021/acsomega.9b02011
   
   for metadynamics refer to:
   * S. Grimme, J. Chem. Theory Comput., 2019, 155, 2847-2862
     DOI: 10.1021/acs.jctc.9b00143
   
   for SPH calculations refer to:
   * S. Spicher and S. Grimme, J. Chem. Theory Comput., 2021, 17, 1701-1714
     DOI: 10.1021/acs.jctc.0c01306
   
   with help from (in alphabetical order)
   P. Atkinson, C. Bannwarth, F. Bohle, G. Brandenburg, E. Caldeweyher
   M. Checinski, S. Dohm, S. Ehlert, S. Ehrlich, I. Gerasimov, C. Hölzer
   A. Katbashev, J. Koopman, C. Lavigne, S. Lehtola, F. März, M. Müller,
   F. Musil, H. Neugebauer, J. Pisarek, C. Plett, P. Pracht, F. Pultar,
   J. Seibert, P. Shushkov, S. Spicher, M. Stahn, M. Steiner, T. Strunk,
   J. Stückrath, T. Rose, and J. Unsleber
   
 * started run on 2022/07/09 at 18:33:40.381     

           -------------------------------------------------
          |                Calculation Setup                |
           -------------------------------------------------

          program call               : /opt/homebrew/bin/xtb bvl_bpin2_scan_8-7_xtb.xyz --chrg 0 --uhf 0 --opt --input xcontrol_bvl_bpin2_scan_8-7_xtb
          coordinate file            : bvl_bpin2_scan_8-7_xtb.xyz
          omp threads                :                     1

   ID    Z sym.   atoms
    1    6 C      1, 2, 4-7, 10-12, 14, 16, 19-24, 26, 27, 29-31
    2    8 O      3, 8, 18, 25
    3    5 B      9, 17
    4    1 H      13, 15, 28, 32-60
constraining bond 12 31 to    2.3889000 Å, actual value:    2.2781786 Å
constraining bond 10 29 to    1.7222000 Å, actual value:    1.8283259 Å

           -------------------------------------------------
          |                 G F N 2 - x T B                 |
           -------------------------------------------------

        Reference                      10.1021/acs.jctc.8b01176
      * Hamiltonian:
        H0-scaling (s, p, d)           1.850000    2.230000    2.230000
        zeta-weighting                 0.500000
      * Dispersion:
        s8                             2.700000
        a1                             0.520000
        a2                             5.000000
        s9                             5.000000
      * Repulsion:
        kExp                           1.500000    1.000000
        rExp                           1.000000
      * Coulomb:
        alpha                          2.000000
        third order                    shell-resolved
        anisotropic                    true
        a3                             3.000000
        a5                             4.000000
        cn-shift                       1.200000
        cn-exp                         4.000000
        max-rad                        5.000000


          ...................................................
          :                      SETUP                      :
          :.................................................:
          :  # basis functions                 144          :
          :  # atomic orbitals                 144          :
          :  # shells                           88          :
          :  # electrons                       150          :
          :  max. iterations                   250          :
          :  Hamiltonian                  GFN2-xTB          :
          :  restarted?                      false          :
          :  GBSA solvation                  false          :
          :  PC potential                    false          :
          :  electronic temp.          300.0000000     K    :
          :  accuracy                    1.0000000          :
          :  -> integral cutoff          0.2500000E+02      :
          :  -> integral neglect         0.1000000E-07      :
          :  -> SCF convergence          0.1000000E-05 Eh   :
          :  -> wf. convergence          0.1000000E-03 e    :
          :  Broyden damping             0.4000000          :
          ...................................................

 iter      E             dE          RMSdq      gap      omega  full diag
   1    -82.9466624 -0.829467E+02  0.473E+00    3.23       0.0  T
   2    -83.3341268 -0.387464E+00  0.290E+00    2.86       1.0  T
   3    -83.3478637 -0.137369E-01  0.141E+00    3.16       1.0  T
   4    -83.3717984 -0.239347E-01  0.429E-01    3.04       1.0  T
   5    -83.3831924 -0.113940E-01  0.163E-01    3.09       1.0  T
   6    -83.3833368 -0.144412E-03  0.984E-02    3.09       1.0  T
   7    -83.3836196 -0.282793E-03  0.245E-02    3.09       1.0  T
   8    -83.3836337 -0.140712E-04  0.102E-02    3.09       1.3  T
   9    -83.3836364 -0.265910E-05  0.550E-03    3.09       2.3  T
  10    -83.3836372 -0.845522E-06  0.269E-03    3.09       4.8  T
  11    -83.3836374 -0.154233E-06  0.989E-04    3.09      13.1  T
  12    -83.3836374 -0.436536E-07  0.336E-04    3.09      38.4  T

   *** convergence criteria satisfied after 12 iterations ***

         #    Occupation            Energy/Eh            Energy/eV
      -------------------------------------------------------------
         1        2.0000           -0.6905925             -18.7920
       ...           ...                  ...                  ...
        69        2.0000           -0.4029131             -10.9638
        70        2.0000           -0.3993020             -10.8656
        71        2.0000           -0.3968321             -10.7984
        72        2.0000           -0.3946945             -10.7402
        73        2.0000           -0.3880489             -10.5593
        74        2.0000           -0.3550694              -9.6619
        75        2.0000           -0.3429843              -9.3331 (HOMO)
        76                         -0.2294990              -6.2450 (LUMO)
        77                         -0.2108123              -5.7365
        78                         -0.1843987              -5.0177
        79                         -0.1403873              -3.8201
        80                         -0.0959874              -2.6119
       ...                                ...                  ...
       144                          0.6813208              18.5397
      -------------------------------------------------------------
                  HL-Gap            0.1134854 Eh            3.0881 eV
             Fermi-level           -0.2862416 Eh           -7.7890 eV

 SCC (total)                   0 d,  0 h,  0 min,  0.069 sec
 SCC setup                      ...        0 min,  0.000 sec (  0.375%)
 Dispersion                     ...        0 min,  0.000 sec (  0.644%)
 classical contributions        ...        0 min,  0.000 sec (  0.262%)
 integral evaluation            ...        0 min,  0.007 sec (  9.634%)
 iterations                     ...        0 min,  0.033 sec ( 48.419%)
 molecular gradient             ...        0 min,  0.028 sec ( 40.140%)
 printout                       ...        0 min,  0.000 sec (  0.516%)

         :::::::::::::::::::::::::::::::::::::::::::::::::::::
         ::                     SUMMARY                     ::
         :::::::::::::::::::::::::::::::::::::::::::::::::::::
         :: total energy             -82.137108531343 Eh    ::
         :: gradient norm              1.679700682720 Eh/a0 ::
         :: HOMO-LUMO gap              3.088093887220 eV    ::
         ::.................................................::
         :: SCC energy               -83.383637396089 Eh    ::
         :: -> isotropic ES            0.148240477347 Eh    ::
         :: -> anisotropic ES          0.011556481886 Eh    ::
         :: -> anisotropic XC          0.026965446351 Eh    ::
         :: -> dispersion             -0.061837073212 Eh    ::
         :: repulsion energy           1.077854307035 Eh    ::
         :: add. restraining           0.167996674881 Eh    ::
         :: total charge              -0.000000000000 e     ::
         :::::::::::::::::::::::::::::::::::::::::::::::::::::

      ----------------------------------------------------------- 
     |                   =====================                   |
     |                        A N C O P T                        |
     |                   =====================                   |
     |               Approximate Normal Coordinate               |
     |                Rational Function Optimizer                |
      ----------------------------------------------------------- 

          ...................................................
          :                      SETUP                      :
          :.................................................:
          :   optimization level            normal          :
          :   max. optcycles                   200          :
          :   ANC micro-cycles                  20          :
          :   degrees of freedom               174          :
          :.................................................:
          :   RF solver                   davidson          :
          :   write xtbopt.log                true          :
          :   linear?                        false          :
          :   energy convergence         0.5000000E-05 Eh   :
          :   grad. convergence          0.1000000E-02 Eh/α :
          :   maximium RF displ.         1.0000000          :
          :   Hlow (freq-cutoff)         0.1000000E-01      :
          :   Hmax (freq-cutoff)         5.0000000          :
          :   S6 in model hess.         20.0000000          :
          ...................................................

generating ANC from model Hessian ...
Using Lindh-Hessian (1995)
 Shifting diagonal of input Hessian by   0.20338922729137784     
 Lowest  eigenvalues of input Hessian
    0.010000    0.158500    0.000000    0.000000    0.000000    0.000000
    0.000000    0.000000    0.203505    0.203529    0.203685    0.205050
    0.205300    0.206235    0.206688    0.206753    0.208012    0.208510
 Highest eigenvalues
    1.917518    2.102426    2.106784    2.149337    8.895651    8.996678


........................................................................
.............................. CYCLE    1 ..............................
........................................................................
   1    -83.3836374 -0.833836E+02  0.160E-04    3.09       0.0  T
   2    -83.3836374 -0.127615E-08  0.104E-04    3.09     124.7  T
   3    -83.3836374 -0.490019E-09  0.469E-05    3.09     275.2  T
     SCC iter.                  ...        0 min,  0.009 sec
     gradient                   ...        0 min,  0.028 sec
 * total energy  :   -82.1371085 Eh     change       -0.1757854E-08 Eh
   gradient norm :     1.6797011 Eh/α   predicted     0.0000000E+00 (-100.00%)
   displ. norm   :     0.3114946 α      lambda       -0.5164205E+00
   maximum displ.:     0.2681870 α      in ANC's #174, #173, #127, ...

........................................................................
.............................. CYCLE    2 ..............................
........................................................................
   1    -83.3898094 -0.833898E+02  0.313E-01    3.42       0.0  T
   2    -83.3897825  0.268914E-04  0.233E-01    3.40       1.0  T
   3    -83.3901678 -0.385296E-03  0.145E-01    3.41       1.0  T
   4    -83.3907373 -0.569463E-03  0.247E-02    3.40       1.0  T
   5    -83.3907654 -0.281095E-04  0.758E-03    3.40       1.7  T
   6    -83.3907676 -0.226218E-05  0.320E-03    3.40       4.0  T
   7    -83.3907678 -0.173043E-06  0.106E-03    3.40      12.2  T
   8    -83.3907678 -0.511029E-08  0.348E-04    3.40      37.1  T
   9    -83.3907678 -0.392725E-08  0.152E-04    3.40      84.9  T
     SCC iter.                  ...        0 min,  0.025 sec
     gradient                   ...        0 min,  0.028 sec
 * total energy  :   -82.2664607 Eh     change       -0.1293522E+00 Eh
   gradient norm :     0.8553287 Eh/α   predicted    -0.2833820E+00 ( 119.08%)
   displ. norm   :     0.1059397 α      lambda       -0.8765952E-01
   maximum displ.:     0.0909418 α      in ANC's #174, #173, #36, ...

........................................................................
.............................. CYCLE    3 ..............................
........................................................................
   1    -83.3878936 -0.833879E+02  0.109E-01    3.29       0.0  T
   2    -83.3878976 -0.407344E-05  0.811E-02    3.30       1.0  T
   3    -83.3879610 -0.634028E-04  0.515E-02    3.29       1.0  T
   4    -83.3880286 -0.676076E-04  0.929E-03    3.30       1.4  T
   5    -83.3880323 -0.369614E-05  0.328E-03    3.30       3.9  T
   6    -83.3880328 -0.487443E-06  0.124E-03    3.30      10.4  T
   7    -83.3880328 -0.215394E-07  0.345E-04    3.30      37.4  T
   8    -83.3880328 -0.138215E-09  0.114E-04    3.30     113.1  T
     SCC iter.                  ...        0 min,  0.022 sec
     gradient                   ...        0 min,  0.028 sec
 * total energy  :   -82.3110621 Eh     change       -0.4460139E-01 Eh
   gradient norm :     0.0263717 Eh/α   predicted    -0.4432086E-01 (  -0.63%)
   displ. norm   :     0.0395088 α      lambda       -0.7631487E-03
   maximum displ.:     0.0172688 α      in ANC's #36, #37, #28, ...

........................................................................
.............................. CYCLE    4 ..............................
........................................................................
   1    -83.3871471 -0.833871E+02  0.260E-02    3.28       0.0  T
   2    -83.3871489 -0.182172E-05  0.165E-02    3.29       1.0  T
   3    -83.3871436  0.532368E-05  0.123E-02    3.29       1.1  T
   4    -83.3871508 -0.722983E-05  0.223E-03    3.29       5.8  T
   5    -83.3871511 -0.249801E-06  0.519E-04    3.29      24.9  T
   6    -83.3871511 -0.100444E-07  0.273E-04    3.29      47.2  T
     SCC iter.                  ...        0 min,  0.016 sec
     gradient                   ...        0 min,  0.028 sec
 * total energy  :   -82.3116851 Eh     change       -0.6229945E-03 Eh
   gradient norm :     0.0150910 Eh/α   predicted    -0.3821913E-03 ( -38.65%)
   displ. norm   :     0.1164128 α      lambda       -0.1205828E-02
   maximum displ.:     0.0530181 α      in ANC's #36, #1, #37, ...

........................................................................
.............................. CYCLE    5 ..............................
........................................................................
   1    -83.3855512 -0.833856E+02  0.703E-02    3.27       0.0  T
   2    -83.3855573 -0.611774E-05  0.429E-02    3.27       1.0  T
   3    -83.3855103  0.469643E-04  0.313E-02    3.27       1.0  T
   4    -83.3855658 -0.554750E-04  0.413E-03    3.27       3.1  T
   5    -83.3855667 -0.841657E-06  0.115E-03    3.27      11.3  T
   6    -83.3855667 -0.444249E-07  0.589E-04    3.27      21.9  T
   7    -83.3855667 -0.544215E-08  0.181E-04    3.27      71.3  T
     SCC iter.                  ...        0 min,  0.020 sec
     gradient                   ...        0 min,  0.028 sec
 * total energy  :   -82.3122826 Eh     change       -0.5974971E-03 Eh
   gradient norm :     0.0136088 Eh/α   predicted    -0.6112599E-03 (   2.30%)
   displ. norm   :     0.3362418 α      lambda       -0.1730273E-02
   maximum displ.:     0.2907531 α      in ANC's #1, #36, #28, ...

........................................................................
.............................. CYCLE    6 ..............................
........................................................................
   1    -83.3784461 -0.833784E+02  0.198E-01    3.22       0.0  T
   2    -83.3784597 -0.136580E-04  0.118E-01    3.22       1.0  T
   3    -83.3784201  0.396446E-04  0.274E-02    3.22       1.0  T
   4    -83.3784627 -0.426418E-04  0.685E-03    3.22       1.9  T
   5    -83.3784650 -0.221682E-05  0.239E-03    3.22       5.4  T
   6    -83.3784650 -0.339701E-07  0.144E-03    3.22       9.0  T
   7    -83.3784651 -0.753755E-07  0.261E-04    3.22      49.5  T
   8    -83.3784651 -0.121122E-08  0.115E-04    3.22     112.3  T
     SCC iter.                  ...        0 min,  0.022 sec
     gradient                   ...        0 min,  0.028 sec
 * total energy  :   -82.3091689 Eh     change        0.3113662E-02 Eh
   gradient norm :     0.0637047 Eh/α   predicted    -0.9634286E-03 (-130.94%)
   displ. norm   :     0.2419752 α      lambda       -0.6944536E-02
   maximum displ.:     0.2242460 α      in ANC's #1, #36, #28, ...

........................................................................
.............................. CYCLE    7 ..............................
........................................................................
   1    -83.3862485 -0.833862E+02  0.146E-01    3.26       0.0  T
   2    -83.3862564 -0.790814E-05  0.872E-02    3.26       1.0  T
   3    -83.3862467  0.974684E-05  0.142E-02    3.26       1.0  T
   4    -83.3862578 -0.110856E-04  0.439E-03    3.26       2.9  T
   5    -83.3862586 -0.787007E-06  0.159E-03    3.26       8.1  T
   6    -83.3862585  0.205491E-07  0.102E-03    3.26      12.7  T
   7    -83.3862586 -0.515994E-07  0.219E-04    3.26      58.9  T
   8    -83.3862586 -0.123828E-08  0.808E-05    3.26     159.8  T
     SCC iter.                  ...        0 min,  0.022 sec
     gradient                   ...        0 min,  0.028 sec
 * total energy  :   -82.3126750 Eh     change       -0.3506099E-02 Eh
   gradient norm :     0.0205135 Eh/α   predicted    -0.3672685E-02 (   4.75%)
   displ. norm   :     0.0343724 α      lambda       -0.2645489E-03
   maximum displ.:     0.0213090 α      in ANC's #1, #28, #36, ...

........................................................................
.............................. CYCLE    8 ..............................
........................................................................
   1    -83.3870576 -0.833871E+02  0.184E-02    3.25       0.0  T
   2    -83.3870579 -0.329222E-06  0.113E-02    3.25       1.1  T
   3    -83.3870557  0.225062E-05  0.656E-03    3.25       2.0  T
   4    -83.3870582 -0.252333E-05  0.110E-03    3.25      11.7  T
   5    -83.3870583 -0.650018E-07  0.295E-04    3.25      43.8  T
   6    -83.3870583 -0.282365E-08  0.167E-04    3.25      77.2  T
     SCC iter.                  ...        0 min,  0.017 sec
     gradient                   ...        0 min,  0.028 sec
 * total energy  :   -82.3128673 Eh     change       -0.1922565E-03 Eh
   gradient norm :     0.0140807 Eh/α   predicted    -0.1327222E-03 ( -30.97%)
   displ. norm   :     0.0984623 α      lambda       -0.4555499E-03
   maximum displ.:     0.0500464 α      in ANC's #28, #36, #37, ...

........................................................................
.............................. CYCLE    9 ..............................
........................................................................
   1    -83.3885642 -0.833886E+02  0.476E-02    3.25       0.0  T
   2    -83.3885652 -0.107093E-05  0.283E-02    3.25       1.0  T
   3    -83.3885639  0.133490E-05  0.516E-03    3.25       2.5  T
   4    -83.3885654 -0.155203E-05  0.122E-03    3.25      10.6  T
   5    -83.3885655 -0.770023E-07  0.483E-04    3.25      26.7  T
   6    -83.3885655 -0.217263E-08  0.308E-04    3.25      41.9  T
     SCC iter.                  ...        0 min,  0.016 sec
     gradient                   ...        0 min,  0.028 sec
 * total energy  :   -82.3131983 Eh     change       -0.3310054E-03 Eh
   gradient norm :     0.0124521 Eh/α   predicted    -0.2305418E-03 ( -30.35%)
   displ. norm   :     0.1386445 α      lambda       -0.3885976E-03
   maximum displ.:     0.0730469 α      in ANC's #28, #36, #37, ...

........................................................................
.............................. CYCLE   10 ..............................
........................................................................
   1    -83.3897450 -0.833897E+02  0.657E-02    3.23       0.0  T
   2    -83.3897460 -0.106576E-05  0.388E-02    3.23       1.0  T
   3    -83.3897368  0.919935E-05  0.125E-02    3.23       1.0  T
   4    -83.3897467 -0.990787E-05  0.200E-03    3.23       6.5  T
   5    -83.3897469 -0.196315E-06  0.630E-04    3.23      20.5  T
   6    -83.3897469 -0.172253E-08  0.365E-04    3.23      35.4  T
     SCC iter.                  ...        0 min,  0.017 sec
     gradient                   ...        0 min,  0.028 sec
 * total energy  :   -82.3134489 Eh     change       -0.2505552E-03 Eh
   gradient norm :     0.0078917 Eh/α   predicted    -0.1987479E-03 ( -20.68%)
   displ. norm   :     0.0668158 α      lambda       -0.1191396E-03
   maximum displ.:     0.0369068 α      in ANC's #28, #36, #17, ...

........................................................................
.............................. CYCLE   11 ..............................
........................................................................
   1    -83.3905023 -0.833905E+02  0.310E-02    3.22       0.0  T
   2    -83.3905024 -0.127166E-06  0.184E-02    3.22       1.0  T
   3    -83.3904980  0.434073E-05  0.858E-03    3.22       1.5  T
   4    -83.3905027 -0.469327E-05  0.651E-04    3.22      19.8  T
   5    -83.3905027 -0.132648E-07  0.302E-04    3.22      42.8  T
   6    -83.3905027 -0.321478E-09  0.168E-04    3.22      76.7  T
     SCC iter.                  ...        0 min,  0.016 sec
     gradient                   ...        0 min,  0.028 sec
 * total energy  :   -82.3135333 Eh     change       -0.8441612E-04 Eh
   gradient norm :     0.0046370 Eh/α   predicted    -0.5983499E-04 ( -29.12%)
   displ. norm   :     0.0543891 α      lambda       -0.8935609E-04
   maximum displ.:     0.0310806 α      in ANC's #28, #17, #14, ...

........................................................................
.............................. CYCLE   12 ..............................
........................................................................
   1    -83.3913981 -0.833914E+02  0.238E-02    3.22       0.0  T
   2    -83.3913981 -0.567867E-07  0.144E-02    3.22       1.0  T
   3    -83.3913937  0.440003E-05  0.863E-03    3.22       1.5  T
   4    -83.3913986 -0.480566E-05  0.546E-04    3.22      23.6  T
   5    -83.3913986 -0.103907E-07  0.259E-04    3.22      49.9  T
   6    -83.3913986 -0.102123E-08  0.142E-04    3.22      90.6  T
     SCC iter.                  ...        0 min,  0.017 sec
     gradient                   ...        0 min,  0.028 sec
 * total energy  :   -82.3135976 Eh     change       -0.6435939E-04 Eh
   gradient norm :     0.0035048 Eh/α   predicted    -0.4481627E-04 ( -30.37%)
   displ. norm   :     0.0485666 α      lambda       -0.7293152E-04
   maximum displ.:     0.0268364 α      in ANC's #28, #17, #14, ...

........................................................................
.............................. CYCLE   13 ..............................
........................................................................
   1    -83.3922920 -0.833923E+02  0.197E-02    3.22       0.0  T
   2    -83.3922920 -0.476808E-07  0.121E-02    3.22       1.1  T
   3    -83.3922884  0.360879E-05  0.785E-03    3.22       1.6  T
   4    -83.3922924 -0.399359E-05  0.622E-04    3.22      20.7  T
   5    -83.3922925 -0.172397E-07  0.241E-04    3.22      53.5  T
   6    -83.3922925 -0.123562E-08  0.120E-04    3.22     107.7  T
     SCC iter.                  ...        0 min,  0.016 sec
     gradient                   ...        0 min,  0.028 sec
 * total energy  :   -82.3136494 Eh     change       -0.5180086E-04 Eh
   gradient norm :     0.0033928 Eh/α   predicted    -0.3655295E-04 ( -29.44%)
   displ. norm   :     0.0409107 α      lambda       -0.5293604E-04
   maximum displ.:     0.0193064 α      in ANC's #28, #17, #14, ...

........................................................................
.............................. CYCLE   14 ..............................
........................................................................
   1    -83.3927864 -0.833928E+02  0.158E-02    3.22       0.0  T
   2    -83.3927864 -0.493014E-07  0.969E-03    3.22       1.3  T
   3    -83.3927845  0.193200E-05  0.577E-03    3.22       2.2  T
   4    -83.3927866 -0.212812E-05  0.601E-04    3.22      21.5  T
   5    -83.3927867 -0.169613E-07  0.227E-04    3.22      56.8  T
   6    -83.3927867 -0.122229E-08  0.950E-05    3.22     136.0  T
     SCC iter.                  ...        0 min,  0.016 sec
     gradient                   ...        0 min,  0.028 sec
 * total energy  :   -82.3136867 Eh     change       -0.3722746E-04 Eh
   gradient norm :     0.0030753 Eh/α   predicted    -0.2651672E-04 ( -28.77%)
   displ. norm   :     0.0316657 α      lambda       -0.3558422E-04
   maximum displ.:     0.0125094 α      in ANC's #36, #17, #14, ...

........................................................................
.............................. CYCLE   15 ..............................
........................................................................
   1    -83.3927391 -0.833927E+02  0.123E-02    3.22       0.0  T
   2    -83.3927391 -0.601781E-07  0.734E-03    3.22       1.8  T
   3    -83.3927386  0.520753E-06  0.317E-03    3.22       4.1  T
   4    -83.3927392 -0.569342E-06  0.455E-04    3.22      28.4  T
   5    -83.3927392 -0.102039E-07  0.237E-04    3.22      54.5  T
     SCC iter.                  ...        0 min,  0.015 sec
     gradient                   ...        0 min,  0.028 sec
 * total energy  :   -82.3137117 Eh     change       -0.2499988E-04 Eh
   gradient norm :     0.0023569 Eh/α   predicted    -0.1782576E-04 ( -28.70%)
   displ. norm   :     0.0249872 α      lambda       -0.2441911E-04
   maximum displ.:     0.0121244 α      in ANC's #36, #17, #37, ...

........................................................................
.............................. CYCLE   16 ..............................
........................................................................
   1    -83.3923229 -0.833923E+02  0.943E-03    3.22       0.0  T
   2    -83.3923230 -0.578721E-07  0.564E-03    3.22       2.3  T
   3    -83.3923227  0.273077E-06  0.246E-03    3.22       5.3  T
   4    -83.3923230 -0.310896E-06  0.277E-04    3.22      46.6  T
   5    -83.3923230 -0.264654E-08  0.119E-04    3.22     108.6  T
     SCC iter.                  ...        0 min,  0.014 sec
     gradient                   ...        0 min,  0.028 sec
 * total energy  :   -82.3137292 Eh     change       -0.1756105E-04 Eh
   gradient norm :     0.0019162 Eh/α   predicted    -0.1222218E-04 ( -30.40%)
   displ. norm   :     0.0360517 α      lambda       -0.2058912E-04
   maximum displ.:     0.0149324 α      in ANC's #36, #17, #14, ...

........................................................................
.............................. CYCLE   17 ..............................
........................................................................
   1    -83.3914924 -0.833915E+02  0.126E-02    3.23       0.0  T
   2    -83.3914925 -0.122143E-06  0.766E-03    3.23       1.7  T
   3    -83.3914919  0.611919E-06  0.358E-03    3.23       3.6  T
   4    -83.3914926 -0.697514E-06  0.453E-04    3.23      28.5  T
   5    -83.3914926 -0.740002E-08  0.204E-04    3.23      63.1  T
     SCC iter.                  ...        0 min,  0.014 sec
     gradient                   ...        0 min,  0.028 sec
 * total energy  :   -82.3137472 Eh     change       -0.1799803E-04 Eh
   gradient norm :     0.0022541 Eh/α   predicted    -0.1030243E-04 ( -42.76%)
   displ. norm   :     0.0122570 α      lambda       -0.1112718E-04
   maximum displ.:     0.0046251 α      in ANC's #17, #14, #6, ...

........................................................................
.............................. CYCLE   18 ..............................
........................................................................
   1    -83.3913958 -0.833914E+02  0.496E-03    3.23       0.0  T
   2    -83.3913958 -0.969129E-08  0.296E-03    3.23       4.4  T
   3    -83.3913958  0.615680E-07  0.111E-03    3.23      11.7  T
   4    -83.3913958 -0.674689E-07  0.187E-04    3.23      69.2  T
   5    -83.3913958 -0.151148E-08  0.690E-05    3.23     187.1  T
     SCC iter.                  ...        0 min,  0.014 sec
     gradient                   ...        0 min,  0.028 sec
 * total energy  :   -82.3137566 Eh     change       -0.9394165E-05 Eh
   gradient norm :     0.0017504 Eh/α   predicted    -0.5568972E-05 ( -40.72%)
   displ. norm   :     0.0495460 α      lambda       -0.2195498E-04
   maximum displ.:     0.0195332 α      in ANC's #17, #14, #6, ...

........................................................................
.............................. CYCLE   19 ..............................
........................................................................
   1    -83.3914419 -0.833914E+02  0.179E-02    3.23       0.0  T
   2    -83.3914420 -0.112202E-06  0.107E-02    3.22       1.2  T
   3    -83.3914415  0.506399E-06  0.319E-03    3.23       4.0  T
   4    -83.3914420 -0.550956E-06  0.626E-04    3.22      20.6  T
   5    -83.3914420 -0.152713E-07  0.239E-04    3.22      54.0  T
     SCC iter.                  ...        0 min,  0.014 sec
     gradient                   ...        0 min,  0.028 sec
 * total energy  :   -82.3137692 Eh     change       -0.1261438E-04 Eh
   gradient norm :     0.0015536 Eh/α   predicted    -0.1099642E-04 ( -12.83%)
   displ. norm   :     0.0065198 α      lambda       -0.4479089E-05
   maximum displ.:     0.0030272 α      in ANC's #1, #63, #28, ...

........................................................................
.............................. CYCLE   20 ..............................
........................................................................
   1    -83.3917322 -0.833917E+02  0.383E-03    3.22       0.0  T
   2    -83.3917322 -0.993296E-08  0.230E-03    3.22       5.6  T
   3    -83.3917322  0.429736E-07  0.984E-04    3.22      13.1  T
   4    -83.3917322 -0.497283E-07  0.124E-04    3.22     104.2  T
     SCC iter.                  ...        0 min,  0.011 sec
     gradient                   ...        0 min,  0.028 sec
 * total energy  :   -82.3137745 Eh     change       -0.5264511E-05 Eh
   gradient norm :     0.0008804 Eh/α   predicted    -0.2244221E-05 ( -57.37%)
   displ. norm   :     0.0160289 α      lambda       -0.6902959E-05
   maximum displ.:     0.0066214 α      in ANC's #6, #28, #10, ...
 * RMSD in coord.:     0.0952218 α      energy gain  -0.1766660E+00 Eh

generating ANC from model Hessian ...
Using Lindh-Hessian (1995)
 Shifting diagonal of input Hessian by    9.9281856347018284E-003
 Lowest  eigenvalues of input Hessian
    0.000000    0.000000    0.000000    0.000000    0.000000    0.000000
    0.010000    0.010067    0.010105    0.010171    0.010865    0.011806
    0.012318    0.013220    0.013285    0.013859    0.014518    0.015088
 Highest eigenvalues
    1.722217    1.909429    1.923011    1.943747    8.751425    8.939874


........................................................................
.............................. CYCLE   21 ..............................
........................................................................
   1    -83.3922844 -0.833923E+02  0.606E-03    3.22       0.0  T
   2    -83.3922845 -0.218845E-07  0.365E-03    3.22       3.5  T
   3    -83.3922843  0.129779E-06  0.171E-03    3.22       7.5  T
   4    -83.3922845 -0.148723E-06  0.208E-04    3.22      62.2  T
   5    -83.3922845 -0.141344E-08  0.100E-04    3.22     128.5  T
     SCC iter.                  ...        0 min,  0.014 sec
     gradient                   ...        0 min,  0.028 sec
 * total energy  :   -82.3137818 Eh     change       -0.7273443E-05 Eh
   gradient norm :     0.0007774 Eh/α   predicted     0.0000000E+00 (-100.00%)
   displ. norm   :     0.0477051 α      lambda       -0.1430602E-04
   maximum displ.:     0.0209906 α      in ANC's #6, #5, #3, ...

........................................................................
.............................. CYCLE   22 ..............................
........................................................................
   1    -83.3922100 -0.833922E+02  0.105E-02    3.22       0.0  T
   2    -83.3922100 -0.140888E-07  0.624E-03    3.22       2.1  T
   3    -83.3922100  0.656928E-07  0.109E-03    3.22      11.8  T
   4    -83.3922100 -0.724826E-07  0.262E-04    3.22      49.3  T
   5    -83.3922100 -0.182801E-08  0.139E-04    3.22      93.1  T
     SCC iter.                  ...        0 min,  0.014 sec
     gradient                   ...        0 min,  0.028 sec
 * total energy  :   -82.3137991 Eh     change       -0.1735962E-04 Eh
   gradient norm :     0.0005941 Eh/α   predicted    -0.7168649E-05 ( -58.71%)
   displ. norm   :     0.1378881 α      lambda       -0.2812659E-04
   maximum displ.:     0.0661374 α      in ANC's #5, #6, #3, ...

........................................................................
.............................. CYCLE   23 ..............................
........................................................................
   1    -83.3924605 -0.833925E+02  0.218E-02    3.22       0.0  T
   2    -83.3924606 -0.687433E-07  0.131E-02    3.22       1.0  T
   3    -83.3924604  0.132278E-06  0.171E-03    3.22       7.6  T
   4    -83.3924606 -0.161151E-06  0.527E-04    3.22      24.5  T
   5    -83.3924606 -0.332166E-08  0.330E-04    3.22      39.1  T
     SCC iter.                  ...        0 min,  0.014 sec
     gradient                   ...        0 min,  0.028 sec
 * total energy  :   -82.3138285 Eh     change       -0.2935209E-04 Eh
   gradient norm :     0.0014802 Eh/α   predicted    -0.1418779E-04 ( -51.66%)
   displ. norm   :     0.1332854 α      lambda       -0.1793325E-04
   maximum displ.:     0.0660379 α      in ANC's #5, #3, #6, ...

........................................................................
.............................. CYCLE   24 ..............................
........................................................................
   1    -83.3925356 -0.833925E+02  0.181E-02    3.22       0.0  T
   2    -83.3925357 -0.373425E-07  0.109E-02    3.22       1.2  T
   3    -83.3925352  0.461675E-06  0.283E-03    3.22       4.6  T
   4    -83.3925357 -0.504971E-06  0.472E-04    3.22      27.4  T
   5    -83.3925357 -0.310243E-08  0.232E-04    3.22      55.6  T
     SCC iter.                  ...        0 min,  0.014 sec
     gradient                   ...        0 min,  0.028 sec
 * total energy  :   -82.3138483 Eh     change       -0.1981922E-04 Eh
   gradient norm :     0.0034049 Eh/α   predicted    -0.9038428E-05 ( -54.40%)
   displ. norm   :     0.1117755 α      lambda       -0.2035778E-04
   maximum displ.:     0.0550854 α      in ANC's #5, #3, #2, ...

........................................................................
.............................. CYCLE   25 ..............................
........................................................................
   1    -83.3925020 -0.833925E+02  0.137E-02    3.22       0.0  T
   2    -83.3925020 -0.360108E-07  0.823E-03    3.22       1.6  T
   3    -83.3925018  0.224970E-06  0.211E-03    3.22       6.1  T
   4    -83.3925021 -0.249902E-06  0.418E-04    3.22      30.9  T
   5    -83.3925021 -0.311570E-08  0.250E-04    3.22      51.6  T
     SCC iter.                  ...        0 min,  0.014 sec
     gradient                   ...        0 min,  0.028 sec
 * total energy  :   -82.3138641 Eh     change       -0.1581649E-04 Eh
   gradient norm :     0.0018077 Eh/α   predicted    -0.1031584E-04 ( -34.78%)
   displ. norm   :     0.2112952 α      lambda       -0.2168377E-04
   maximum displ.:     0.1033103 α      in ANC's #3, #5, #2, ...

........................................................................
.............................. CYCLE   26 ..............................
........................................................................
   1    -83.3923041 -0.833923E+02  0.248E-02    3.22       0.0  T
   2    -83.3923042 -0.108664E-06  0.149E-02    3.21       1.0  T
   3    -83.3923023  0.186599E-05  0.567E-03    3.21       2.3  T
   4    -83.3923043 -0.203113E-05  0.718E-04    3.21      18.0  T
   5    -83.3923044 -0.752480E-08  0.408E-04    3.21      31.6  T
   6    -83.3923044 -0.126727E-08  0.214E-04    3.21      60.4  T
     SCC iter.                  ...        0 min,  0.016 sec
     gradient                   ...        0 min,  0.028 sec
 * total energy  :   -82.3138849 Eh     change       -0.2075762E-04 Eh
   gradient norm :     0.0006972 Eh/α   predicted    -0.1107080E-04 ( -46.67%)
   displ. norm   :     0.0983243 α      lambda       -0.9364055E-05
   maximum displ.:     0.0527469 α      in ANC's #3, #2, #5, ...

........................................................................
.............................. CYCLE   27 ..............................
........................................................................
   1    -83.3923949 -0.833924E+02  0.118E-02    3.21       0.0  T
   2    -83.3923950 -0.213485E-07  0.707E-03    3.21       1.8  T
   3    -83.3923945  0.458997E-06  0.285E-03    3.21       4.5  T
   4    -83.3923950 -0.499495E-06  0.321E-04    3.21      40.2  T
   5    -83.3923950 -0.183999E-08  0.196E-04    3.21      66.0  T
     SCC iter.                  ...        0 min,  0.014 sec
     gradient                   ...        0 min,  0.028 sec
 * total energy  :   -82.3138961 Eh     change       -0.1128074E-04 Eh
   gradient norm :     0.0009497 Eh/α   predicted    -0.4702970E-05 ( -58.31%)
   displ. norm   :     0.1317021 α      lambda       -0.1452818E-04
   maximum displ.:     0.0707021 α      in ANC's #3, #2, #1, ...

........................................................................
.............................. CYCLE   28 ..............................
........................................................................
   1    -83.3923792 -0.833924E+02  0.177E-02    3.21       0.0  T
   2    -83.3923792 -0.508771E-07  0.105E-02    3.21       1.2  T
   3    -83.3923787  0.503080E-06  0.301E-03    3.21       4.3  T
   4    -83.3923793 -0.547326E-06  0.432E-04    3.21      29.9  T
   5    -83.3923793 -0.488960E-08  0.247E-04    3.21      52.2  T
     SCC iter.                  ...        0 min,  0.014 sec
     gradient                   ...        0 min,  0.028 sec
 * total energy  :   -82.3139126 Eh     change       -0.1645499E-04 Eh
   gradient norm :     0.0012840 Eh/α   predicted    -0.7324021E-05 ( -55.49%)
   displ. norm   :     0.1382331 α      lambda       -0.1152404E-04
   maximum displ.:     0.0772640 α      in ANC's #2, #3, #1, ...

........................................................................
.............................. CYCLE   29 ..............................
........................................................................
   1    -83.3922616 -0.833923E+02  0.174E-02    3.21       0.0  T
   2    -83.3922617 -0.537107E-07  0.104E-02    3.21       1.2  T
   3    -83.3922616  0.921889E-07  0.157E-03    3.21       8.2  T
   4    -83.3922617 -0.114565E-06  0.344E-04    3.21      37.5  T
   5    -83.3922617 -0.134642E-08  0.184E-04    3.21      70.3  T
     SCC iter.                  ...        0 min,  0.014 sec
     gradient                   ...        0 min,  0.028 sec
 * total energy  :   -82.3139252 Eh     change       -0.1262802E-04 Eh
   gradient norm :     0.0012944 Eh/α   predicted    -0.5811632E-05 ( -53.98%)
   displ. norm   :     0.1072163 α      lambda       -0.7807437E-05
   maximum displ.:     0.0636339 α      in ANC's #2, #3, #1, ...

........................................................................
.............................. CYCLE   30 ..............................
........................................................................
   1    -83.3923760 -0.833924E+02  0.121E-02    3.21       0.0  T
   2    -83.3923760 -0.245400E-07  0.720E-03    3.21       1.8  T
   3    -83.3923760  0.216308E-08  0.474E-04    3.21      27.2  T
   4    -83.3923760 -0.585928E-08  0.297E-04    3.21      43.5  T
     SCC iter.                  ...        0 min,  0.011 sec
     gradient                   ...        0 min,  0.028 sec
 * total energy  :   -82.3139347 Eh     change       -0.9443464E-05 Eh
   gradient norm :     0.0010821 Eh/α   predicted    -0.3927419E-05 ( -58.41%)
   displ. norm   :     0.1150749 α      lambda       -0.9046968E-05
   maximum displ.:     0.0700045 α      in ANC's #2, #3, #1, ...

........................................................................
.............................. CYCLE   31 ..............................
........................................................................
   1    -83.3925746 -0.833926E+02  0.115E-02    3.21       0.0  T
   2    -83.3925747 -0.211467E-07  0.686E-03    3.21       1.9  T
   3    -83.3925744  0.253388E-06  0.206E-03    3.21       6.3  T
   4    -83.3925747 -0.275604E-06  0.275E-04    3.21      47.0  T
   5    -83.3925747 -0.123940E-08  0.163E-04    3.21      79.4  T
     SCC iter.                  ...        0 min,  0.014 sec
     gradient                   ...        0 min,  0.028 sec
 * total energy  :   -82.3139456 Eh     change       -0.1092550E-04 Eh
   gradient norm :     0.0019836 Eh/α   predicted    -0.4551233E-05 ( -58.34%)
   displ. norm   :     0.1573321 α      lambda       -0.1224555E-04
   maximum displ.:     0.0958342 α      in ANC's #2, #3, #1, ...

........................................................................
.............................. CYCLE   32 ..............................
........................................................................
   1    -83.3926298 -0.833926E+02  0.159E-02    3.21       0.0  T
   2    -83.3926299 -0.351051E-07  0.945E-03    3.21       1.4  T
   3    -83.3926296  0.253921E-06  0.220E-03    3.21       5.9  T
   4    -83.3926299 -0.280724E-06  0.376E-04    3.21      34.3  T
   5    -83.3926299 -0.260349E-08  0.235E-04    3.21      55.0  T
     SCC iter.                  ...        0 min,  0.013 sec
     gradient                   ...        0 min,  0.027 sec
 * total energy  :   -82.3139593 Eh     change       -0.1369499E-04 Eh
   gradient norm :     0.0029333 Eh/α   predicted    -0.6191289E-05 ( -54.79%)
   displ. norm   :     0.1183135 α      lambda       -0.1216641E-04
   maximum displ.:     0.0727684 α      in ANC's #2, #3, #1, ...

........................................................................
.............................. CYCLE   33 ..............................
........................................................................
   1    -83.3926608 -0.833927E+02  0.124E-02    3.21       0.0  T
   2    -83.3926608 -0.184915E-07  0.738E-03    3.21       1.7  T
   3    -83.3926607  0.125139E-06  0.167E-03    3.21       7.7  T
   4    -83.3926608 -0.141218E-06  0.249E-04    3.21      51.8  T
   5    -83.3926608 -0.283976E-09  0.164E-04    3.21      78.7  T
     SCC iter.                  ...        0 min,  0.013 sec
     gradient                   ...        0 min,  0.027 sec
 * total energy  :   -82.3139696 Eh     change       -0.1028883E-04 Eh
   gradient norm :     0.0009261 Eh/α   predicted    -0.6169697E-05 ( -40.03%)
   displ. norm   :     0.2523653 α      lambda       -0.1548787E-04
   maximum displ.:     0.1556592 α      in ANC's #2, #3, #1, ...

........................................................................
.............................. CYCLE   34 ..............................
........................................................................
   1    -83.3926054 -0.833926E+02  0.257E-02    3.21       0.0  T
   2    -83.3926055 -0.696428E-07  0.153E-02    3.21       1.0  T
   3    -83.3926052  0.296993E-06  0.262E-03    3.21       4.9  T
   4    -83.3926055 -0.344173E-06  0.493E-04    3.21      26.2  T
   5    -83.3926055 -0.180604E-08  0.291E-04    3.21      44.3  T
     SCC iter.                  ...        0 min,  0.013 sec
     gradient                   ...        0 min,  0.027 sec
 * total energy  :   -82.3139866 Eh     change       -0.1697269E-04 Eh
   gradient norm :     0.0011571 Eh/α   predicted    -0.7964609E-05 ( -53.07%)
   displ. norm   :     0.1800212 α      lambda       -0.8502269E-05
   maximum displ.:     0.1131076 α      in ANC's #2, #3, #1, ...

........................................................................
.............................. CYCLE   35 ..............................
........................................................................
   1    -83.3925847 -0.833926E+02  0.178E-02    3.21       0.0  T
   2    -83.3925847 -0.328552E-07  0.106E-02    3.21       1.2  T
   3    -83.3925845  0.164850E-06  0.183E-03    3.21       7.1  T
   4    -83.3925847 -0.186477E-06  0.373E-04    3.21      34.6  T
   5    -83.3925847 -0.220980E-08  0.233E-04    3.21      55.4  T
     SCC iter.                  ...        0 min,  0.013 sec
     gradient                   ...        0 min,  0.027 sec
 * total energy  :   -82.3139965 Eh     change       -0.9904932E-05 Eh
   gradient norm :     0.0006809 Eh/α   predicted    -0.4314198E-05 ( -56.44%)
   displ. norm   :     0.1550347 α      lambda       -0.6728321E-05
   maximum displ.:     0.0986808 α      in ANC's #2, #3, #1, ...

........................................................................
.............................. CYCLE   36 ..............................
........................................................................
   1    -83.3925641 -0.833926E+02  0.150E-02    3.21       0.0  T
   2    -83.3925642 -0.284193E-07  0.893E-03    3.21       1.4  T
   3    -83.3925641  0.971515E-07  0.138E-03    3.21       9.3  T
   4    -83.3925642 -0.110715E-06  0.342E-04    3.21      37.7  T
   5    -83.3925642 -0.264652E-08  0.195E-04    3.21      66.2  T
     SCC iter.                  ...        0 min,  0.013 sec
     gradient                   ...        0 min,  0.027 sec
 * total energy  :   -82.3140041 Eh     change       -0.7630759E-05 Eh
   gradient norm :     0.0006797 Eh/α   predicted    -0.3400597E-05 ( -55.44%)
   displ. norm   :     0.1345605 α      lambda       -0.4863333E-05
   maximum displ.:     0.0865075 α      in ANC's #2, #3, #1, ...

........................................................................
.............................. CYCLE   37 ..............................
........................................................................
   1    -83.3924271 -0.833924E+02  0.137E-02    3.21       0.0  T
   2    -83.3924271 -0.308002E-07  0.813E-03    3.21       1.6  T
   3    -83.3924270  0.993963E-07  0.133E-03    3.21       9.7  T
   4    -83.3924272 -0.112767E-06  0.339E-04    3.21      38.1  T
   5    -83.3924272 -0.305027E-08  0.192E-04    3.21      67.2  T
     SCC iter.                  ...        0 min,  0.013 sec
     gradient                   ...        0 min,  0.027 sec
 * total energy  :   -82.3140094 Eh     change       -0.5284101E-05 Eh
   gradient norm :     0.0004014 Eh/α   predicted    -0.2454968E-05 ( -53.54%)
   displ. norm   :     0.1015168 α      lambda       -0.3189779E-05
   maximum displ.:     0.0658283 α      in ANC's #2, #3, #1, ...

........................................................................
.............................. CYCLE   38 ..............................
........................................................................
   1    -83.3923862 -0.833924E+02  0.105E-02    3.21       0.0  T
   2    -83.3923862 -0.166594E-07  0.627E-03    3.21       2.1  T
   3    -83.3923862  0.331528E-07  0.825E-04    3.21      15.6  T
   4    -83.3923862 -0.403014E-07  0.238E-04    3.21      54.3  T
     SCC iter.                  ...        0 min,  0.011 sec
     gradient                   ...        0 min,  0.027 sec
 * total energy  :   -82.3140129 Eh     change       -0.3550384E-05 Eh
   gradient norm :     0.0006953 Eh/α   predicted    -0.1603384E-05 ( -54.84%)
   displ. norm   :     0.0774593 α      lambda       -0.2381713E-05
   maximum displ.:     0.0511827 α      in ANC's #2, #3, #1, ...

   *** GEOMETRY OPTIMIZATION CONVERGED AFTER 38 ITERATIONS ***

------------------------------------------------------------------------
 total energy gain   :        -0.1769044 Eh     -111.0092 kcal/mol
 total RMSD          :         0.2928983 a0        0.1550 Å
 total power (kW/mol):       -12.2226953 (step) -235.5637 (real)
------------------------------------------------------------------------

 ANCopt (total)                0 d,  0 h,  0 min,  1.972 sec
 optimizer setup                ...        0 min,  0.000 sec (  0.005%)
 model hessian                  ...        0 min,  0.064 sec (  3.221%)
 ANC generation                 ...        0 min,  0.005 sec (  0.273%)
 coordinate transformation      ...        0 min,  0.001 sec (  0.027%)
 single point calculation       ...        0 min,  1.889 sec ( 95.811%)
 optimization log               ...        0 min,  0.008 sec (  0.388%)
 hessian update                 ...        0 min,  0.001 sec (  0.046%)
 rational function              ...        0 min,  0.003 sec (  0.154%)

================
 final structure:
================
60
 xtb: 6.5.0 (homebrew)
C            3.60674589023800      -37.65163740571828       15.81981205443910
C            3.78692926441692      -38.09871933786361       17.26858979583539
O            3.29966635386515      -37.08289868241706       18.14604335884438
C            2.93429565955230      -39.34914590469541       17.51805151279937
C            5.27986880040530      -38.27686790955334       17.72645996054394
C            5.77324860210385      -39.72091853170716       17.77042732593238
C            6.26106305799545      -37.43520442797985       16.90093769929583
O            5.27892075992041      -37.73454688692819       19.04765600513904
B            4.15396386977580      -36.97746260257072       19.21174902084699
C            3.87270948614838      -36.09817255685517       20.46415817705436
C            4.87403144306084      -36.07662599825855       21.51804907657391
C            4.87674406826880      -35.35512951002261       22.63936886879663
H            5.72259494961423      -35.44599442949457       23.30755083558485
C            3.82527813021018      -34.35760850034041       23.03783436439352
H            4.06986750709474      -33.94948292643232       24.02013784625191
C            2.45263597502787      -34.98573113150454       23.13158518461593
B            1.72229374092803      -34.94291226101794       24.50859590424065
O            2.25750611163580      -34.38520837067166       25.63736434568371
C            1.39904838058294      -34.66681264161614       26.74112625329988
C            1.29894153931112      -33.43525829542755       27.63837305977724
C            2.04835621909967      -35.81120950259405       27.52997928220175
C            0.05523580732819      -35.09142786393770       26.04523907995904
C           -0.92988960906009      -33.92542002778896       25.89122559832730
C           -0.66417375751479      -36.26953829432890       26.69794095604250
O            0.47388253488696      -35.45613376102211       24.73044804215752
C            1.87690179336382      -35.58269226739143       22.08209658948391
C            2.41518181261276      -35.70904931307948       20.72224485496997
H            1.73319818269449      -36.22199905251829       20.05117536566867
C            3.16030818862592      -34.59125225671225       20.05226103960081
C            3.63876599450886      -33.40157721569125       20.71454436170164
C            3.90986305959811      -33.26179318210489       22.01410669016948
H            4.27928730721949      -32.30762723956743       22.36499093146050
H            2.54389358426731      -37.57985559946425       15.60243552775300
H            4.05511353487552      -38.37638565445988       15.14576313965107
H            4.05129918546860      -36.67623296940909       15.65065999225229
H            1.89165142976140      -39.09833124946918       17.33634747316403
H            3.02787903602086      -39.66747055601144       18.55337217839977
H            3.22322199776334      -40.15956811860998       16.85574059754503
H            5.69940765715675      -40.17352188447342       16.78530027021885
H            5.20482379646695      -40.30855166515100       18.48384500493432
H            6.81424884443101      -39.72689754611503       18.08359017267585
H            6.34965294315840      -37.81614458778983       15.88795874915333
H            7.23627745128575      -37.47340134341631       17.38082572822259
H            5.93979239608413      -36.39685556637284       16.87796346436148
H            5.71699466904961      -36.72576722359445       21.31446130939991
H            2.27205888575067      -33.24321755329312       28.08365206640785
H            0.57702491025198      -33.60720485849884       28.43225434646365
H            1.01040128577222      -32.55735088346466       27.06953313135458
H            3.04330067234271      -35.49775510094454       27.83804685401132
H            2.15393554393607      -36.68957012358518       26.89805225989014
H            1.46676292403948      -36.05949946265030       28.41277728637671
H           -1.32909104908159      -33.61829554466978       26.85328817072688
H           -1.74964925845415      -34.24913195452265       25.25401909123808
H           -0.44234837088460      -33.08275189752754       25.40740091831907
H           -0.91177306455878      -36.03329622501757       27.72935022759575
H           -0.05571657437678      -37.16739682958055       26.66688936684535
H           -1.58322079148511      -36.46663666581119       26.15169745033885
H            0.90030074694887      -36.02538299484061       22.23209819811328
H            3.01219812457864      -34.51909956812030       18.98548263174613
H            3.80201836592092      -32.55530808533737       20.05698095114471

 Bond Distances (Angstroems)
 ---------------------------
C1-C2=1.5269         C1-H33=1.0872        C1-H34=1.0866        C1-H35=1.0852        C2-C1=1.5269         C2-O3=1.4280         
C2-C4=1.5339         C2-C5=1.5717         O3-C2=1.4280         O3-B9=1.3699         C4-C2=1.5339         C4-H36=1.0877        
C4-H37=1.0872        C4-H38=1.0858        C5-C2=1.5717         C5-C6=1.5266         C5-C7=1.5338         C5-O8=1.4282         
C6-C5=1.5266         C6-H39=1.0866        C6-H40=1.0851        C6-H41=1.0871        C7-C5=1.5338         C7-H42=1.0859        
C7-H43=1.0876        C7-H44=1.0872        O8-C5=1.4282         O8-B9=1.3659         B9-O3=1.3699         B9-O8=1.3659         
B9-C10=1.5559        C10-B9=1.5559        C10-C11=1.4539       C10-C27=1.5305       C10-C29=1.7170       C11-C10=1.4539       
C11-C12=1.3334       C11-H45=1.0832       C12-C11=1.3334       C12-H13=1.0818       C12-C14=1.5031       H13-C12=1.0818       
C14-C12=1.5031       C14-H15=1.0915       C14-C16=1.5124       C14-C31=1.5020       H15-C14=1.0915       C16-C14=1.5124       
C16-B17=1.5593       C16-C26=1.3376       B17-C16=1.5593       B17-O18=1.3681       B17-O25=1.3679       O18-B17=1.3681       
O18-C19=1.4264       C19-O18=1.4264       C19-C20=1.5270       C19-C21=1.5341       C19-C22=1.5717       C20-C19=1.5270       
C20-H46=1.0872       C20-H47=1.0867       C20-H48=1.0852       C21-C19=1.5341       C21-H49=1.0877       C21-H50=1.0872       
C21-H51=1.0859       C22-C19=1.5717       C22-C23=1.5342       C22-C24=1.5269       C22-O25=1.4272       C23-C22=1.5342       
C23-H52=1.0859       C23-H53=1.0876       C23-H54=1.0871       C24-C22=1.5269       C24-H55=1.0867       C24-H56=1.0851       
C24-H57=1.0871       O25-B17=1.3679       O25-C22=1.4272       C26-C16=1.3376       C26-C27=1.4680       C26-H58=1.0827       
C27-C10=1.5305       C27-C26=1.4680       C27-H28=1.0856       C27-C29=1.5012       H28-C27=1.0856       C29-C10=1.7170       
C29-C27=1.5012       C29-C30=1.4432       C29-H59=1.0794       C30-C29=1.4432       C30-C31=1.3349       C30-H60=1.0841       
C31-C14=1.5020       C31-C30=1.3349       C31-H32=1.0817       H32-C31=1.0817       H33-C1=1.0872        H34-C1=1.0866        
H35-C1=1.0852        H36-C4=1.0877        H37-C4=1.0872        H38-C4=1.0858        H39-C6=1.0866        H40-C6=1.0851        
H41-C6=1.0871        H42-C7=1.0859        H43-C7=1.0876        H44-C7=1.0872        H45-C11=1.0832       H46-C20=1.0872       
H47-C20=1.0867       H48-C20=1.0852       H49-C21=1.0877       H50-C21=1.0872       H51-C21=1.0859       H52-C23=1.0859       
H53-C23=1.0876       H54-C23=1.0871       H55-C24=1.0867       H56-C24=1.0851       H57-C24=1.0871       H58-C26=1.0827       
H59-C29=1.0794       H60-C30=1.0841       
 C  H  Rav=1.0859 sigma=0.0022  Rmin=1.0794  Rmax=1.0915    32
 C  B  Rav=1.5576 sigma=0.0017  Rmin=1.5559  Rmax=1.5593     2
 C  C  Rav=1.5011 sigma=0.0836  Rmin=1.3334  Rmax=1.7170    22
 O  B  Rav=1.3679 sigma=0.0014  Rmin=1.3659  Rmax=1.3699     4
 O  C  Rav=1.4274 sigma=0.0007  Rmin=1.4264  Rmax=1.4282     4

 selected bond angles (degree)
 --------------------
H33-C1-C2=108.93               H34-C1-C2=110.16               H34-C1-H33=108.87              H35-C1-C2=111.27               
H35-C1-H33=108.06              H35-C1-H34=109.50              O3-C2-C1=109.54                C4-C2-C1=109.11                
C4-C2-O3=106.88                C5-C2-C1=114.94                C5-C2-O3=103.05                C5-C2-C4=112.84                
B9-O3-C2=108.66                H36-C4-C2=108.52               H37-C4-C2=110.23               H37-C4-H36=108.01              
H38-C4-C2=111.18               H38-C4-H36=108.98              H38-C4-H37=109.84              C6-C5-C2=115.00                
C7-C5-C2=112.87                C7-C5-C6=109.14                O8-C5-C2=103.05                O8-C5-C6=109.44                
O8-C5-C7=106.85                H39-C6-C5=110.24               H40-C6-C5=111.22               H40-C6-H39=109.57              
H41-C6-C5=108.84               H41-C6-H39=108.90              H41-C6-H40=108.01              H42-C7-C5=111.21               
H43-C7-C5=108.47               H43-C7-H42=109.04              H44-C7-C5=110.27               H44-C7-H42=109.84              
H44-C7-H43=107.93              B9-O8-C5=108.79                O8-B9-O3=112.18                C10-B9-O3=123.85               
C10-B9-O8=123.98               C11-C10-B9=117.86              C27-C10-B9=116.84              C27-C10-C11=122.00             
C29-C10-B9=112.20              C29-C10-C11=116.53             C29-C10-C27= 54.70             

 selected dihedral angles (degree)
 ---------------------------------
O3-C2-C1-H33=294.25           O3-C2-C1-H34=174.91           O3-C2-C1-H35= 53.27           C4-C2-C1-H33= 50.93           
C4-C2-C1-H34=291.59           C4-C2-C1-H35=169.95           C5-C2-C1-H33=178.83           C5-C2-C1-H34= 59.49           
C5-C2-C1-H35=297.86           B9-O3-C2-C1=220.18            B9-O3-C2-C4=102.10            B9-O3-C2-C5=342.97            
H36-C4-C2-C1=299.65           H36-C4-C2-O3= 58.01           H36-C4-C2-C5=170.58           H37-C4-C2-C1=181.56           
H37-C4-C2-O3=299.92           H37-C4-C2-C5= 52.49           H38-C4-C2-C1= 59.50           H38-C4-C2-O3=177.86           
H38-C4-C2-C5=290.43           C6-C5-C2-C1=258.47            C6-C5-C2-O3=139.37            C6-C5-C2-C4= 24.47            
C7-C5-C2-C1= 24.58            C7-C5-C2-O3=265.47            C7-C5-C2-C4=150.57            O8-C5-C2-C1=139.46            
O8-C5-C2-O3= 20.36            O8-C5-C2-C4=265.46            H39-C6-C5-C2= 59.81           H39-C6-C5-C7=291.81           
H39-C6-C5-O8=175.20           H40-C6-C5-C2=298.07           H40-C6-C5-C7=170.07           H40-C6-C5-O8= 53.46           
H41-C6-C5-C2=179.19           H41-C6-C5-C7= 51.19           H41-C6-C5-O8=294.58           H42-C7-C5-C2=290.09           
H42-C7-C5-C6= 59.28           H42-C7-C5-O8=177.52           H43-C7-C5-C2=170.19           H43-C7-C5-C6=299.38           
H43-C7-C5-O8= 57.62           H44-C7-C5-C2= 52.20           H44-C7-C5-C6=181.38           H44-C7-C5-O8=299.62           
B9-O8-C5-C2=343.21            B9-O8-C5-C6=220.40            B9-O8-C5-C7=102.36            O8-B9-O3-C2=  7.45            
C10-B9-O3-C2=187.53           O3-B9-O8-C5=  7.01            C10-B9-O8-C5=186.92           C11-C10-B9-O3=180.32          
C11-C10-B9-O8=  0.41          C27-C10-B9-O3= 20.38          C27-C10-B9-O8=200.47          C29-C10-B9-O3=319.91          
C29-C10-B9-O8=140.01          
           -------------------------------------------------
          |                Final Singlepoint                |
           -------------------------------------------------

          ...................................................
          :                      SETUP                      :
          :.................................................:
          :  # basis functions                 144          :
          :  # atomic orbitals                 144          :
          :  # shells                           88          :
          :  # electrons                       150          :
          :  max. iterations                   250          :
          :  Hamiltonian                  GFN2-xTB          :
          :  restarted?                      false          :
          :  GBSA solvation                  false          :
          :  PC potential                    false          :
          :  electronic temp.          300.0000000     K    :
          :  accuracy                    1.0000000          :
          :  -> integral cutoff          0.2500000E+02      :
          :  -> integral neglect         0.1000000E-07      :
          :  -> SCF convergence          0.1000000E-05 Eh   :
          :  -> wf. convergence          0.1000000E-03 e    :
          :  Broyden damping             0.4000000          :
          ...................................................

 iter      E             dE          RMSdq      gap      omega  full diag
   1    -83.3923862 -0.833924E+02  0.152E-04    3.21       0.0  T
   2    -83.3923862  0.848388E-10  0.128E-04    3.21     101.1  T
   3    -83.3923862 -0.673921E-09  0.636E-05    3.21     202.9  T

   *** convergence criteria satisfied after 3 iterations ***

         #    Occupation            Energy/Eh            Energy/eV
      -------------------------------------------------------------
         1        2.0000           -0.6914562             -18.8155
       ...           ...                  ...                  ...
        69        2.0000           -0.4022295             -10.9452
        70        2.0000           -0.3999261             -10.8825
        71        2.0000           -0.3972824             -10.8106
        72        2.0000           -0.3951541             -10.7527
        73        2.0000           -0.3886205             -10.5749
        74        2.0000           -0.3560578              -9.6888
        75        2.0000           -0.3438359              -9.3563 (HOMO)
        76                         -0.2258652              -6.1461 (LUMO)
        77                         -0.2036827              -5.5425
        78                         -0.1827637              -4.9733
        79                         -0.1434068              -3.9023
        80                         -0.0952100              -2.5908
       ...                                ...                  ...
       144                          0.6762580              18.4019
      -------------------------------------------------------------
                  HL-Gap            0.1179706 Eh            3.2101 eV
             Fermi-level           -0.2848505 Eh           -7.7512 eV

 SCC (total)                   0 d,  0 h,  0 min,  0.041 sec
 SCC setup                      ...        0 min,  0.000 sec (  0.553%)
 Dispersion                     ...        0 min,  0.000 sec (  0.871%)
 classical contributions        ...        0 min,  0.000 sec (  0.408%)
 integral evaluation            ...        0 min,  0.006 sec ( 14.070%)
 iterations                     ...        0 min,  0.008 sec ( 19.903%)
 molecular gradient             ...        0 min,  0.026 sec ( 63.451%)
 printout                       ...        0 min,  0.000 sec (  0.737%)

         :::::::::::::::::::::::::::::::::::::::::::::::::::::
         ::                     SUMMARY                     ::
         :::::::::::::::::::::::::::::::::::::::::::::::::::::
         :: total energy             -82.314012925926 Eh    ::
         :: gradient norm              0.000696393916 Eh/a0 ::
         :: HOMO-LUMO gap              3.210144729225 eV    ::
         ::.................................................::
         :: SCC energy               -83.392386196627 Eh    ::
         :: -> isotropic ES            0.148320515282 Eh    ::
         :: -> anisotropic ES          0.011411363872 Eh    ::
         :: -> anisotropic XC          0.026969512301 Eh    ::
         :: -> dispersion             -0.061876340458 Eh    ::
         :: repulsion energy           1.077510576898 Eh    ::
         :: add. restraining           0.000195726353 Eh    ::
         :: total charge              -0.000000000000 e     ::
         :::::::::::::::::::::::::::::::::::::::::::::::::::::

           -------------------------------------------------
          |                Property Printout                |
           -------------------------------------------------

    * Orbital Energies and Occupations

         #    Occupation            Energy/Eh            Energy/eV
      -------------------------------------------------------------
         1        2.0000           -0.6914562             -18.8155
       ...           ...                  ...                  ...
        63        2.0000           -0.4340910             -11.8122
        64        2.0000           -0.4333259             -11.7914
        65        2.0000           -0.4286009             -11.6628
        66        2.0000           -0.4226263             -11.5002
        67        2.0000           -0.4189598             -11.4005
        68        2.0000           -0.4144725             -11.2784
        69        2.0000           -0.4022295             -10.9452
        70        2.0000           -0.3999261             -10.8825
        71        2.0000           -0.3972824             -10.8106
        72        2.0000           -0.3951541             -10.7527
        73        2.0000           -0.3886205             -10.5749
        74        2.0000           -0.3560578              -9.6888
        75        2.0000           -0.3438359              -9.3563 (HOMO)
        76                         -0.2258652              -6.1461 (LUMO)
        77                         -0.2036827              -5.5425
        78                         -0.1827637              -4.9733
        79                         -0.1434068              -3.9023
        80                         -0.0952100              -2.5908
        81                         -0.0252460              -0.6870
        82                          0.0057384               0.1562
        83                          0.0106517               0.2898
        84                          0.0254935               0.6937
        85                          0.0300793               0.8185
        86                          0.0538513               1.4654
       ...                                ...                  ...
       144                          0.6762580              18.4019
      -------------------------------------------------------------
                  HL-Gap            0.1179706 Eh            3.2101 eV
             Fermi-level           -0.2848505 Eh           -7.7512 eV

     #   Z          covCN         q      C6AA      α(0)
     1   6 C        3.755    -0.117    22.798     6.808
     2   6 C        3.859     0.130    18.439     6.107
     3   8 O        1.638    -0.380    20.470     6.107
     4   6 C        3.755    -0.116    22.781     6.806
     5   6 C        3.860     0.129    18.446     6.108
     6   6 C        3.755    -0.118    22.809     6.810
     7   6 C        3.755    -0.116    22.778     6.805
     8   8 O        1.638    -0.372    20.330     6.086
     9   5 B        2.658     0.438    15.494     6.628
    10   6 C        3.775    -0.067    21.817     6.655
    11   6 C        2.890    -0.041    29.028     8.833
    12   6 C        2.909    -0.038    28.933     8.820
    13   1 H        0.925     0.024     2.675     2.558
    14   6 C        3.865    -0.016    20.825     6.489
    15   1 H        0.924     0.043     2.403     2.424
    16   6 C        2.868    -0.081    30.033     8.983
    17   5 B        2.661     0.432    15.556     6.639
    18   8 O        1.638    -0.370    20.288     6.080
    19   6 C        3.860     0.129    18.455     6.109
    20   6 C        3.755    -0.117    22.795     6.808
    21   6 C        3.755    -0.116    22.773     6.804
    22   6 C        3.860     0.129    18.451     6.109
    23   6 C        3.755    -0.116    22.779     6.805
    24   6 C        3.755    -0.117    22.801     6.809
    25   8 O        1.638    -0.373    20.338     6.087
    26   6 C        2.895    -0.029    28.722     8.787
    27   6 C        3.860    -0.005    20.635     6.460
    28   1 H        0.925     0.042     2.420     2.433
    29   6 C        3.803    -0.015    20.849     6.501
    30   6 C        2.889    -0.037    28.926     8.818
    31   6 C        2.910    -0.034    28.847     8.807
    32   1 H        0.925     0.025     2.657     2.549
    33   1 H        0.925     0.054     2.265     2.353
    34   1 H        0.925     0.040     2.446     2.446
    35   1 H        0.925     0.052     2.299     2.371
    36   1 H        0.925     0.052     2.294     2.369
    37   1 H        0.925     0.044     2.399     2.422
    38   1 H        0.925     0.043     2.410     2.428
    39   1 H        0.925     0.040     2.445     2.445
    40   1 H        0.925     0.053     2.288     2.366
    41   1 H        0.925     0.055     2.257     2.349
    42   1 H        0.925     0.043     2.409     2.427
    43   1 H        0.925     0.053     2.283     2.363
    44   1 H        0.925     0.043     2.405     2.425
    45   1 H        0.925     0.034     2.536     2.490
    46   1 H        0.925     0.054     2.269     2.356
    47   1 H        0.925     0.039     2.459     2.452
    48   1 H        0.925     0.052     2.297     2.370
    49   1 H        0.925     0.052     2.295     2.369
    50   1 H        0.925     0.044     2.403     2.424
    51   1 H        0.925     0.042     2.422     2.434
    52   1 H        0.925     0.042     2.417     2.431
    53   1 H        0.925     0.052     2.295     2.369
    54   1 H        0.925     0.044     2.402     2.424
    55   1 H        0.925     0.040     2.454     2.450
    56   1 H        0.925     0.052     2.296     2.369
    57   1 H        0.925     0.054     2.269     2.356
    58   1 H        0.925     0.036     2.498     2.472
    59   1 H        0.926     0.038     2.472     2.459
    60   1 H        0.925     0.024     2.668     2.554

 Mol. C6AA /au·bohr⁶  :      32804.015575
 Mol. C8AA /au·bohr⁸  :     759489.435794
 Mol. α(0) /au        :        273.175651


Wiberg/Mayer (AO) data.
largest (>0.10) Wiberg bond orders for each atom

 ---------------------------------------------------------------------------
     #   Z sym  total        # sym  WBO       # sym  WBO       # sym  WBO
 ---------------------------------------------------------------------------
     1   6 C    3.994 --     2 C    0.997    34 H    0.984    33 H    0.983
                            35 H    0.982
     2   6 C    3.942 --     1 C    0.997     4 C    0.991     3 O    0.952
                             5 C    0.937
     3   8 O    2.221 --     9 B    1.120     2 C    0.952
     4   6 C    3.994 --     2 C    0.991    38 H    0.984    37 H    0.984
                            36 H    0.983
     5   6 C    3.942 --     6 C    0.997     7 C    0.991     8 O    0.951
                             2 C    0.937
     6   6 C    3.994 --     5 C    0.997    39 H    0.984    41 H    0.982
                            40 H    0.982
     7   6 C    3.995 --     5 C    0.991    42 H    0.984    44 H    0.984
                            43 H    0.983
     8   8 O    2.231 --     9 B    1.131     5 C    0.951
     9   5 B    3.382 --     8 O    1.131     3 O    1.120    10 C    1.011
    10   6 C    3.918 --    11 C    1.114     9 B    1.011    27 C    0.879
                            29 C    0.723
    11   6 C    3.990 --    12 C    1.827    10 C    1.114    45 H    0.962
    12   6 C    3.988 --    11 C    1.827    14 C    0.980    13 H    0.969
    13   1 H    0.999 --    12 C    0.969
    14   6 C    3.996 --    31 C    0.984    12 C    0.980    16 C    0.978
                            15 H    0.972
    15   1 H    0.998 --    14 C    0.972
    16   6 C    3.975 --    26 C    1.816    17 B    1.001    14 C    0.978
    17   5 B    3.375 --    18 O    1.129    25 O    1.128    16 C    1.001
    18   8 O    2.234 --    17 B    1.129    19 C    0.954
    19   6 C    3.943 --    20 C    0.997    21 C    0.990    18 O    0.954
                            22 C    0.937
    20   6 C    3.994 --    19 C    0.997    47 H    0.985    46 H    0.983
                            48 H    0.982
    21   6 C    3.994 --    19 C    0.990    51 H    0.984    50 H    0.984
                            49 H    0.983
    22   6 C    3.943 --    24 C    0.996    23 C    0.990    25 O    0.953
                            19 C    0.937
    23   6 C    3.995 --    22 C    0.990    52 H    0.984    54 H    0.984
                            53 H    0.983
    24   6 C    3.994 --    22 C    0.996    55 H    0.985    57 H    0.983
                            56 H    0.982
    25   8 O    2.231 --    17 B    1.128    22 C    0.953
    26   6 C    3.988 --    16 C    1.816    27 C    1.063    58 H    0.965
    27   6 C    3.968 --    26 C    1.063    28 H    0.969    29 C    0.937
                            10 C    0.879
    28   1 H    0.998 --    27 C    0.969
    29   6 C    3.940 --    30 C    1.133    59 H    0.974    27 C    0.937
                            10 C    0.723
    30   6 C    3.990 --    31 C    1.811    29 C    1.133    60 H    0.964
    31   6 C    3.983 --    30 C    1.811    14 C    0.984    32 H    0.970
    32   1 H    0.999 --    31 C    0.970
    33   1 H    0.997 --     1 C    0.983
    34   1 H    0.998 --     1 C    0.984
    35   1 H    0.997 --     1 C    0.982
    36   1 H    0.997 --     4 C    0.983
    37   1 H    0.998 --     4 C    0.984
    38   1 H    0.998 --     4 C    0.984
    39   1 H    0.998 --     6 C    0.984
    40   1 H    0.997 --     6 C    0.982
    41   1 H    0.997 --     6 C    0.982
    42   1 H    0.998 --     7 C    0.984
    43   1 H    0.997 --     7 C    0.983
    44   1 H    0.998 --     7 C    0.984
    45   1 H    0.999 --    11 C    0.962
    46   1 H    0.997 --    20 C    0.983
    47   1 H    0.998 --    20 C    0.985
    48   1 H    0.997 --    20 C    0.982
    49   1 H    0.997 --    21 C    0.983
    50   1 H    0.998 --    21 C    0.984
    51   1 H    0.998 --    21 C    0.984
    52   1 H    0.998 --    23 C    0.984
    53   1 H    0.997 --    23 C    0.983
    54   1 H    0.998 --    23 C    0.984
    55   1 H    0.998 --    24 C    0.985
    56   1 H    0.997 --    24 C    0.982
    57   1 H    0.997 --    24 C    0.983
    58   1 H    0.998 --    26 C    0.965
    59   1 H    0.998 --    29 C    0.974
    60   1 H    0.999 --    30 C    0.964
 ---------------------------------------------------------------------------

Topologies differ in total number of bonds
Writing topology from bond orders to xtbtopo.mol

molecular dipole:
                 x           y           z       tot (Debye)
 q only:       -0.283      -0.433      -0.115
   full:       -0.287      -0.512      -0.187       1.567
molecular quadrupole (traceless):
                xx          xy          yy          xz          yz          zz
 q only:      -37.981      21.350      57.679     -31.563      -4.849     -19.698
  q+dip:      -42.219      22.000      69.304     -32.526      -0.287     -27.085
   full:      -42.206      21.267      70.675     -33.782      -1.644     -28.469

           -------------------------------------------------
          |                Geometry Summary                 |
           -------------------------------------------------

      molecular mass/u    :      382.1099696
   center of mass at/Å    :        2.9432633     -35.9555283      21.8344747
  moments of inertia/u·Å² :        0.1126802E+04   0.6975701E+04   0.7201725E+04
rotational constants/cm⁻¹ :        0.1496060E-01   0.2416622E-02   0.2340777E-02

 * 58 selected distances

     #   Z          #   Z                                           value/Å
     1   6 C        2   6 C                                       1.5268614
     2   6 C        3   8 O                                       1.4280203
     2   6 C        4   6 C                                       1.5338782
     5   6 C        6   6 C                                       1.5266432
     5   6 C        7   6 C                                       1.5338276
     5   6 C        8   8 O                                       1.4281710
     3   8 O        9   5 B                                       1.3699160
     8   8 O        9   5 B                                       1.3658812
     9   5 B       10   6 C                                       1.5558869
    10   6 C       11   6 C                                       1.4538901
    11   6 C       12   6 C                                       1.3333878
    12   6 C       13   1 H                                       1.0817521
    14   6 C       15   1 H                                       1.0914718
    16   6 C       17   5 B                                       1.5592922 (max)
    17   5 B       18   8 O                                       1.3680660
    18   8 O       19   6 C                                       1.4263735
    19   6 C       20   6 C                                       1.5270232
    19   6 C       21   6 C                                       1.5341233
    22   6 C       23   6 C                                       1.5341991
    22   6 C       24   6 C                                       1.5269298
    17   5 B       25   8 O                                       1.3678982
    22   6 C       25   8 O                                       1.4272180
    16   6 C       26   6 C                                       1.3376319
    10   6 C       27   6 C                                       1.5304944
    26   6 C       27   6 C                                       1.4679607
    27   6 C       28   1 H                                       1.0856121
    27   6 C       29   6 C                                       1.5011870
    29   6 C       30   6 C                                       1.4432145
    30   6 C       31   6 C                                       1.3348767
    31   6 C       32   1 H                                       1.0816778
     1   6 C       33   1 H                                       1.0872260
     1   6 C       34   1 H                                       1.0865706
     1   6 C       35   1 H                                       1.0851977
     4   6 C       36   1 H                                       1.0876725
     4   6 C       37   1 H                                       1.0871879
     4   6 C       38   1 H                                       1.0857802
     6   6 C       39   1 H                                       1.0866360
     6   6 C       40   1 H                                       1.0850735
     6   6 C       41   1 H                                       1.0871009
     7   6 C       42   1 H                                       1.0858592
     7   6 C       43   1 H                                       1.0875637
     7   6 C       44   1 H                                       1.0871574
    11   6 C       45   1 H                                       1.0832449
    20   6 C       46   1 H                                       1.0872491
    20   6 C       47   1 H                                       1.0867276
    20   6 C       48   1 H                                       1.0851525
    21   6 C       49   1 H                                       1.0876920
    21   6 C       50   1 H                                       1.0871966
    21   6 C       51   1 H                                       1.0859241
    23   6 C       52   1 H                                       1.0859336
    23   6 C       53   1 H                                       1.0875788
    23   6 C       54   1 H                                       1.0871396
    24   6 C       55   1 H                                       1.0867019
    24   6 C       56   1 H                                       1.0850505
    24   6 C       57   1 H                                       1.0871419
    26   6 C       58   1 H                                       1.0826936
    29   6 C       59   1 H                                       1.0794253 (min)
    30   6 C       60   1 H                                       1.0840722

 * 5 distinct bonds (by element types)

   Z      Z             #   av. dist./Å        max./Å        min./Å
   1 H    6 C          32     1.0858895     1.0914718     1.0794253
   5 B    6 C           2     1.5575896     1.5592922     1.5558869
   6 C    6 C          16     1.4778830     1.5341991     1.3333878
   5 B    8 O           4     1.3679404     1.3699160     1.3658812
   6 C    8 O           4     1.4274457     1.4281710     1.4263735


optimized geometry written to: xtbopt.xyz


           -------------------------------------------------
          | TOTAL ENERGY              -82.314012925926 Eh   |
          | GRADIENT NORM               0.000696393916 Eh/α |
          | HOMO-LUMO GAP               3.210144729225 eV   |
           -------------------------------------------------

------------------------------------------------------------------------
 * finished run on 2022/07/09 at 18:33:42.476     
------------------------------------------------------------------------
 total:
 * wall-time:     0 d,  0 h,  0 min,  2.094 sec
 *  cpu-time:     0 d,  0 h,  0 min,  2.093 sec
 * ratio c/w:     0.999 speedup
 SCF:
 * wall-time:     0 d,  0 h,  0 min,  0.069 sec
 *  cpu-time:     0 d,  0 h,  0 min,  0.069 sec
 * ratio c/w:     1.000 speedup
 ANC optimizer:
 * wall-time:     0 d,  0 h,  0 min,  2.014 sec
 *  cpu-time:     0 d,  0 h,  0 min,  2.012 sec
 * ratio c/w:     0.999 speedup

