      -----------------------------------------------------------      
     |                   =====================                   |     
     |                           x T B                           |     
     |                   =====================                   |     
     |                         S. Grimme                         |     
     |          Mulliken Center for Theoretical Chemistry        |     
     |                    University of Bonn                     |     
      -----------------------------------------------------------      

   * xtb version 6.5.0 (homebrew) compiled by 'nhattrup@GPGGRP-SHANNON.CHEME.CMU.EDU' on 

   xtb is free software: you can redistribute it and/or modify it under
   the terms of the GNU Lesser General Public License as published by
   the Free Software Foundation, either version 3 of the License, or
   (at your option) any later version.
   
   xtb is distributed in the hope that it will be useful,
   but WITHOUT ANY WARRANTY; without even the implied warranty of
   MERCHANTABILITY or FITNESS FOR A PARTICULAR PURPOSE.  See the
   GNU Lesser General Public License for more details.
   
   Cite this work as:
   * C. Bannwarth, E. Caldeweyher, S. Ehlert, A. Hansen, P. Pracht,
     J. Seibert, S. Spicher, S. Grimme, WIREs Comput. Mol. Sci., 2020, 11,
     e01493. DOI: 10.1002/wcms.1493
   
   for GFN2-xTB:
   * C. Bannwarth, S. Ehlert and S. Grimme., J. Chem. Theory Comput., 2019,
     15, 1652-1671. DOI: 10.1021/acs.jctc.8b01176
   for GFN1-xTB:
   * S. Grimme, C. Bannwarth, P. Shushkov, J. Chem. Theory Comput., 2017,
     13, 1989-2009. DOI: 10.1021/acs.jctc.7b00118
   for GFN0-xTB:
   * P. Pracht, E. Caldeweyher, S. Ehlert, S. Grimme, ChemRxiv, 2019, preprint.
     DOI: 10.26434/chemrxiv.8326202.v1
   for GFN-FF:
   * S. Spicher and S. Grimme, Angew. Chem. Int. Ed., 2020, 59, 15665-15673.
     DOI: 10.1002/anie.202004239
   
   for ALPB and GBSA implicit solvation:
   * S. Ehlert, M. Stahn, S. Spicher, S. Grimme, J. Chem. Theory Comput.,
     2021, 17, 4250-4261. DOI: 10.1021/acs.jctc.1c00471
   
   for DFT-D4:
   * E. Caldeweyher, C. Bannwarth and S. Grimme, J. Chem. Phys., 2017,
     147, 034112. DOI: 10.1063/1.4993215
   * E. Caldeweyher, S. Ehlert, A. Hansen, H. Neugebauer, S. Spicher,
     C. Bannwarth and S. Grimme, J. Chem. Phys., 2019, 150, 154122.
     DOI: 10.1063/1.5090222
   * E. Caldeweyher, J.-M. Mewes, S. Ehlert and S. Grimme, Phys. Chem. Chem. Phys.
     2020, 22, 8499-8512. DOI: 10.1039/D0CP00502A
   
   for sTDA-xTB:
   * S. Grimme and C. Bannwarth, J. Chem. Phys., 2016, 145, 054103.
     DOI: 10.1063/1.4959605
   
   in the mass-spec context:
   * V. Asgeirsson, C. Bauer and S. Grimme, Chem. Sci., 2017, 8, 4879.
     DOI: 10.1039/c7sc00601b
   * J. Koopman and S. Grimme, ACS Omega 2019, 4, 12, 15120-15133.
     DOI: 10.1021/acsomega.9b02011
   
   for metadynamics refer to:
   * S. Grimme, J. Chem. Theory Comput., 2019, 155, 2847-2862
     DOI: 10.1021/acs.jctc.9b00143
   
   for SPH calculations refer to:
   * S. Spicher and S. Grimme, J. Chem. Theory Comput., 2021, 17, 1701-1714
     DOI: 10.1021/acs.jctc.0c01306
   
   with help from (in alphabetical order)
   P. Atkinson, C. Bannwarth, F. Bohle, G. Brandenburg, E. Caldeweyher
   M. Checinski, S. Dohm, S. Ehlert, S. Ehrlich, I. Gerasimov, C. Hölzer
   A. Katbashev, J. Koopman, C. Lavigne, S. Lehtola, F. März, M. Müller,
   F. Musil, H. Neugebauer, J. Pisarek, C. Plett, P. Pracht, F. Pultar,
   J. Seibert, P. Shushkov, S. Spicher, M. Stahn, M. Steiner, T. Strunk,
   J. Stückrath, T. Rose, and J. Unsleber
   
 * started run on 2022/07/09 at 18:33:40.383     

           -------------------------------------------------
          |                Calculation Setup                |
           -------------------------------------------------

          program call               : /opt/homebrew/bin/xtb bvl_bpin2_scan_6-9_xtb.xyz --chrg 0 --uhf 0 --opt --input xcontrol_bvl_bpin2_scan_6-9_xtb
          coordinate file            : bvl_bpin2_scan_6-9_xtb.xyz
          omp threads                :                     1

   ID    Z sym.   atoms
    1    6 C      1, 2, 4-7, 10-12, 14, 16, 19-24, 26, 27, 29-31
    2    8 O      3, 8, 18, 25
    3    5 B      9, 17
    4    1 H      13, 15, 28, 32-60
constraining bond 12 31 to    2.1667000 Å, actual value:    2.0589987 Å
constraining bond 10 29 to    1.5000000 Å, actual value:    1.6102998 Å

           -------------------------------------------------
          |                 G F N 2 - x T B                 |
           -------------------------------------------------

        Reference                      10.1021/acs.jctc.8b01176
      * Hamiltonian:
        H0-scaling (s, p, d)           1.850000    2.230000    2.230000
        zeta-weighting                 0.500000
      * Dispersion:
        s8                             2.700000
        a1                             0.520000
        a2                             5.000000
        s9                             5.000000
      * Repulsion:
        kExp                           1.500000    1.000000
        rExp                           1.000000
      * Coulomb:
        alpha                          2.000000
        third order                    shell-resolved
        anisotropic                    true
        a3                             3.000000
        a5                             4.000000
        cn-shift                       1.200000
        cn-exp                         4.000000
        max-rad                        5.000000


          ...................................................
          :                      SETUP                      :
          :.................................................:
          :  # basis functions                 144          :
          :  # atomic orbitals                 144          :
          :  # shells                           88          :
          :  # electrons                       150          :
          :  max. iterations                   250          :
          :  Hamiltonian                  GFN2-xTB          :
          :  restarted?                      false          :
          :  GBSA solvation                  false          :
          :  PC potential                    false          :
          :  electronic temp.          300.0000000     K    :
          :  accuracy                    1.0000000          :
          :  -> integral cutoff          0.2500000E+02      :
          :  -> integral neglect         0.1000000E-07      :
          :  -> SCF convergence          0.1000000E-05 Eh   :
          :  -> wf. convergence          0.1000000E-03 e    :
          :  Broyden damping             0.4000000          :
          ...................................................

 iter      E             dE          RMSdq      gap      omega  full diag
   1    -82.9542471 -0.829542E+02  0.470E+00    3.40       0.0  T
   2    -83.3448901 -0.390643E+00  0.288E+00    2.85       1.0  T
   3    -83.3589436 -0.140535E-01  0.138E+00    3.23       1.0  T
   4    -83.3817667 -0.228231E-01  0.405E-01    3.04       1.0  T
   5    -83.3924530 -0.106863E-01  0.148E-01    3.12       1.0  T
   6    -83.3924094  0.435471E-04  0.850E-02    3.11       1.0  T
   7    -83.3925912 -0.181752E-03  0.236E-02    3.11       1.0  T
   8    -83.3926063 -0.151497E-04  0.863E-03    3.11       1.5  T
   9    -83.3926079 -0.155845E-05  0.488E-03    3.11       2.6  T
  10    -83.3926085 -0.649234E-06  0.238E-03    3.11       5.4  T
  11    -83.3926087 -0.127721E-06  0.614E-04    3.11      21.0  T
  12    -83.3926087 -0.138016E-07  0.286E-04    3.11      45.2  T

   *** convergence criteria satisfied after 12 iterations ***

         #    Occupation            Energy/Eh            Energy/eV
      -------------------------------------------------------------
         1        2.0000           -0.6930982             -18.8602
       ...           ...                  ...                  ...
        69        2.0000           -0.4050469             -11.0219
        70        2.0000           -0.4012374             -10.9182
        71        2.0000           -0.3979599             -10.8290
        72        2.0000           -0.3950256             -10.7492
        73        2.0000           -0.3811866             -10.3726
        74        2.0000           -0.3613309              -9.8323
        75        2.0000           -0.3379281              -9.1955 (HOMO)
        76                         -0.2236880              -6.0869 (LUMO)
        77                         -0.1983829              -5.3983
        78                         -0.1697347              -4.6187
        79                         -0.1379879              -3.7548
        80                         -0.0954406              -2.5971
       ...                                ...                  ...
       144                          0.6903777              18.7861
      -------------------------------------------------------------
                  HL-Gap            0.1142401 Eh            3.1086 eV
             Fermi-level           -0.2808081 Eh           -7.6412 eV

 SCC (total)                   0 d,  0 h,  0 min,  0.068 sec
 SCC setup                      ...        0 min,  0.000 sec (  0.359%)
 Dispersion                     ...        0 min,  0.000 sec (  0.628%)
 classical contributions        ...        0 min,  0.000 sec (  0.272%)
 integral evaluation            ...        0 min,  0.006 sec (  9.131%)
 iterations                     ...        0 min,  0.033 sec ( 48.691%)
 molecular gradient             ...        0 min,  0.028 sec ( 40.372%)
 printout                       ...        0 min,  0.000 sec (  0.531%)

         :::::::::::::::::::::::::::::::::::::::::::::::::::::
         ::                     SUMMARY                     ::
         :::::::::::::::::::::::::::::::::::::::::::::::::::::
         :: total energy             -82.140214668523 Eh    ::
         :: gradient norm              1.680264709297 Eh/a0 ::
         :: HOMO-LUMO gap              3.108631877233 eV    ::
         ::.................................................::
         :: SCC energy               -83.392608676430 Eh    ::
         :: -> isotropic ES            0.148215037491 Eh    ::
         :: -> anisotropic ES          0.011032335294 Eh    ::
         :: -> anisotropic XC          0.026514806636 Eh    ::
         :: -> dispersion             -0.061856445970 Eh    ::
         :: repulsion energy           1.082006731165 Eh    ::
         :: add. restraining           0.169737134098 Eh    ::
         :: total charge              -0.000000000000 e     ::
         :::::::::::::::::::::::::::::::::::::::::::::::::::::

      ----------------------------------------------------------- 
     |                   =====================                   |
     |                        A N C O P T                        |
     |                   =====================                   |
     |               Approximate Normal Coordinate               |
     |                Rational Function Optimizer                |
      ----------------------------------------------------------- 

          ...................................................
          :                      SETUP                      :
          :.................................................:
          :   optimization level            normal          :
          :   max. optcycles                   200          :
          :   ANC micro-cycles                  20          :
          :   degrees of freedom               174          :
          :.................................................:
          :   RF solver                   davidson          :
          :   write xtbopt.log                true          :
          :   linear?                        false          :
          :   energy convergence         0.5000000E-05 Eh   :
          :   grad. convergence          0.1000000E-02 Eh/α :
          :   maximium RF displ.         1.0000000          :
          :   Hlow (freq-cutoff)         0.1000000E-01      :
          :   Hmax (freq-cutoff)         5.0000000          :
          :   S6 in model hess.         20.0000000          :
          ...................................................

generating ANC from model Hessian ...
Using Lindh-Hessian (1995)
 Shifting diagonal of input Hessian by   0.19613660683020070     
 Lowest  eigenvalues of input Hessian
    0.010000    0.147323    0.000000    0.000000    0.000000    0.000000
    0.000000    0.000000    0.196266    0.196282    0.196430    0.197836
    0.198016    0.199036    0.199435    0.199531    0.200853    0.201279
 Highest eigenvalues
    1.918855    2.067312    2.117970    2.167275    8.937870    9.298819


........................................................................
.............................. CYCLE    1 ..............................
........................................................................
   1    -83.3926087 -0.833926E+02  0.146E-04    3.11       0.0  T
   2    -83.3926087 -0.793904E-09  0.103E-04    3.11     125.4  T
   3    -83.3926087 -0.496328E-09  0.426E-05    3.11     303.4  T
     SCC iter.                  ...        0 min,  0.009 sec
     gradient                   ...        0 min,  0.028 sec
 * total energy  :   -82.1402147 Eh     change       -0.8332819E-09 Eh
   gradient norm :     1.6802664 Eh/α   predicted     0.0000000E+00 (-100.00%)
   displ. norm   :     0.3109434 α      lambda       -0.5164911E+00
   maximum displ.:     0.2308580 α      in ANC's #174, #173, #124, ...

........................................................................
.............................. CYCLE    2 ..............................
........................................................................
   1    -83.3997774 -0.833998E+02  0.300E-01    3.28       0.0  T
   2    -83.3997528  0.245618E-04  0.244E-01    3.29       1.0  T
   3    -83.4008922 -0.113932E-02  0.133E-01    3.28       1.0  T
   4    -83.4011038 -0.211616E-03  0.277E-02    3.28       1.0  T
   5    -83.4011446 -0.407880E-04  0.709E-03    3.28       1.8  T
   6    -83.4011466 -0.203071E-05  0.301E-03    3.28       4.3  T
   7    -83.4011467 -0.119792E-06  0.926E-04    3.28      13.9  T
   8    -83.4011467 -0.296734E-08  0.325E-04    3.28      39.8  T
     SCC iter.                  ...        0 min,  0.023 sec
     gradient                   ...        0 min,  0.028 sec
 * total energy  :   -82.2633903 Eh     change       -0.1231756E+00 Eh
   gradient norm :     0.9036535 Eh/α   predicted    -0.2832757E+00 ( 129.98%)
   displ. norm   :     0.1087828 α      lambda       -0.9579043E-01
   maximum displ.:     0.0768747 α      in ANC's #174, #173, #36, ...

........................................................................
.............................. CYCLE    3 ..............................
........................................................................
   1    -83.3987408 -0.833987E+02  0.106E-01    3.23       0.0  T
   2    -83.3987546 -0.138311E-04  0.852E-02    3.23       1.0  T
   3    -83.3988981 -0.143485E-03  0.482E-02    3.23       1.0  T
   4    -83.3989276 -0.295144E-04  0.109E-02    3.23       1.2  T
   5    -83.3989336 -0.601187E-05  0.334E-03    3.23       3.9  T
   6    -83.3989342 -0.525148E-06  0.120E-03    3.23      10.7  T
   7    -83.3989342 -0.183901E-07  0.385E-04    3.23      33.5  T
   8    -83.3989342 -0.123630E-08  0.130E-04    3.23      99.5  T
     SCC iter.                  ...        0 min,  0.022 sec
     gradient                   ...        0 min,  0.028 sec
 * total energy  :   -82.3116637 Eh     change       -0.4827343E-01 Eh
   gradient norm :     0.0376616 Eh/α   predicted    -0.4846214E-01 (   0.39%)
   displ. norm   :     0.0393876 α      lambda       -0.8910340E-03
   maximum displ.:     0.0175807 α      in ANC's #36, #37, #28, ...

........................................................................
.............................. CYCLE    4 ..............................
........................................................................
   1    -83.3985434 -0.833985E+02  0.259E-02    3.22       0.0  T
   2    -83.3985459 -0.249999E-05  0.168E-02    3.22       1.0  T
   3    -83.3985448  0.115929E-05  0.120E-02    3.23       1.1  T
   4    -83.3985493 -0.449915E-05  0.260E-03    3.23       5.0  T
   5    -83.3985496 -0.312340E-06  0.803E-04    3.23      16.1  T
   6    -83.3985496 -0.311727E-07  0.275E-04    3.23      47.0  T
     SCC iter.                  ...        0 min,  0.017 sec
     gradient                   ...        0 min,  0.028 sec
 * total energy  :   -82.3123020 Eh     change       -0.6382463E-03 Eh
   gradient norm :     0.0243765 Eh/α   predicted    -0.4462739E-03 ( -30.08%)
   displ. norm   :     0.1151981 α      lambda       -0.1163476E-02
   maximum displ.:     0.0685045 α      in ANC's #1, #36, #37, ...

........................................................................
.............................. CYCLE    5 ..............................
........................................................................
   1    -83.3979889 -0.833980E+02  0.686E-02    3.23       0.0  T
   2    -83.3979971 -0.817247E-05  0.418E-02    3.23       1.0  T
   3    -83.3979701  0.269329E-04  0.241E-02    3.23       1.0  T
   4    -83.3980010 -0.308467E-04  0.461E-03    3.23       2.8  T
   5    -83.3980021 -0.111597E-05  0.134E-03    3.23       9.6  T
   6    -83.3980022 -0.640277E-07  0.591E-04    3.23      21.8  T
   7    -83.3980022 -0.652483E-08  0.200E-04    3.23      64.4  T
     SCC iter.                  ...        0 min,  0.020 sec
     gradient                   ...        0 min,  0.028 sec
 * total energy  :   -82.3127287 Eh     change       -0.4266944E-03 Eh
   gradient norm :     0.0155621 Eh/α   predicted    -0.5894515E-03 (  38.14%)
   displ. norm   :     0.3503998 α      lambda       -0.2384200E-02
   maximum displ.:     0.2956958 α      in ANC's #1, #36, #37, ...

........................................................................
.............................. CYCLE    6 ..............................
........................................................................
   1    -83.3928896 -0.833929E+02  0.204E-01    3.22       0.0  T
   2    -83.3929205 -0.309333E-04  0.122E-01    3.23       1.0  T
   3    -83.3927953  0.125232E-03  0.566E-02    3.23       1.0  T
   4    -83.3929407 -0.145393E-03  0.635E-03    3.23       2.0  T
   5    -83.3929422 -0.146546E-05  0.261E-03    3.23       5.0  T
   6    -83.3929422 -0.156365E-07  0.171E-03    3.23       7.6  T
   7    -83.3929423 -0.121809E-06  0.426E-04    3.23      30.3  T
   8    -83.3929423 -0.437134E-08  0.159E-04    3.23      81.0  T
     SCC iter.                  ...        0 min,  0.022 sec
     gradient                   ...        0 min,  0.028 sec
 * total energy  :   -82.3087486 Eh     change        0.3980062E-02 Eh
   gradient norm :     0.0990276 Eh/α   predicted    -0.1338497E-02 (-133.63%)
   displ. norm   :     0.2439765 α      lambda       -0.9058504E-02
   maximum displ.:     0.2130270 α      in ANC's #1, #36, #37, ...

........................................................................
.............................. CYCLE    7 ..............................
........................................................................
   1    -83.3993456 -0.833993E+02  0.145E-01    3.24       0.0  T
   2    -83.3993658 -0.201833E-04  0.874E-02    3.24       1.0  T
   3    -83.3993088  0.569650E-04  0.382E-02    3.24       1.0  T
   4    -83.3993755 -0.666402E-04  0.492E-03    3.24       2.6  T
   5    -83.3993764 -0.920209E-06  0.167E-03    3.24       7.7  T
   6    -83.3993764  0.184013E-07  0.999E-04    3.24      12.9  T
   7    -83.3993764 -0.374754E-07  0.374E-04    3.24      34.5  T
     SCC iter.                  ...        0 min,  0.019 sec
     gradient                   ...        0 min,  0.028 sec
 * total energy  :   -82.3132171 Eh     change       -0.4468491E-02 Eh
   gradient norm :     0.0223272 Eh/α   predicted    -0.4799960E-02 (   7.42%)
   displ. norm   :     0.0268565 α      lambda       -0.2326149E-03
   maximum displ.:     0.0146526 α      in ANC's #1, #28, #36, ...

........................................................................
.............................. CYCLE    8 ..............................
........................................................................
   1    -83.4000053 -0.834000E+02  0.149E-02    3.24       0.0  T
   2    -83.4000058 -0.481180E-06  0.969E-03    3.24       1.3  T
   3    -83.4000048  0.106058E-05  0.639E-03    3.24       2.0  T
   4    -83.4000064 -0.167114E-05  0.124E-03    3.24      10.4  T
   5    -83.4000065 -0.775057E-07  0.365E-04    3.24      35.3  T
   6    -83.4000065 -0.592199E-08  0.151E-04    3.24      85.7  T
     SCC iter.                  ...        0 min,  0.017 sec
     gradient                   ...        0 min,  0.028 sec
 * total energy  :   -82.3133993 Eh     change       -0.1822234E-03 Eh
   gradient norm :     0.0076297 Eh/α   predicted    -0.1163296E-03 ( -36.16%)
   displ. norm   :     0.0965947 α      lambda       -0.4231023E-03
   maximum displ.:     0.0509436 α      in ANC's #28, #36, #37, ...

........................................................................
.............................. CYCLE    9 ..............................
........................................................................
   1    -83.4012405 -0.834012E+02  0.472E-02    3.25       0.0  T
   2    -83.4012417 -0.114896E-05  0.287E-02    3.25       1.0  T
   3    -83.4012337  0.798516E-05  0.125E-02    3.25       1.0  T
   4    -83.4012425 -0.882990E-05  0.191E-03    3.25       6.8  T
   5    -83.4012427 -0.196903E-06  0.572E-04    3.25      22.6  T
   6    -83.4012427 -0.559656E-08  0.350E-04    3.25      36.9  T
     SCC iter.                  ...        0 min,  0.017 sec
     gradient                   ...        0 min,  0.028 sec
 * total energy  :   -82.3136969 Eh     change       -0.2975520E-03 Eh
   gradient norm :     0.0124015 Eh/α   predicted    -0.2132280E-03 ( -28.34%)
   displ. norm   :     0.1080560 α      lambda       -0.2698522E-03
   maximum displ.:     0.0594991 α      in ANC's #28, #36, #37, ...

........................................................................
.............................. CYCLE   10 ..............................
........................................................................
   1    -83.4020974 -0.834021E+02  0.518E-02    3.26       0.0  T
   2    -83.4020981 -0.649830E-06  0.309E-02    3.26       1.0  T
   3    -83.4020965  0.157201E-05  0.601E-03    3.26       2.1  T
   4    -83.4020983 -0.181159E-05  0.108E-03    3.26      12.0  T
   5    -83.4020983 -0.457733E-07  0.468E-04    3.26      27.6  T
   6    -83.4020983 -0.125337E-08  0.158E-04    3.26      81.9  T
     SCC iter.                  ...        0 min,  0.017 sec
     gradient                   ...        0 min,  0.028 sec
 * total energy  :   -82.3138747 Eh     change       -0.1778207E-03 Eh
   gradient norm :     0.0101496 Eh/α   predicted    -0.1362838E-03 ( -23.36%)
   displ. norm   :     0.0591382 α      lambda       -0.9285495E-04
   maximum displ.:     0.0346176 α      in ANC's #28, #36, #37, ...

........................................................................
.............................. CYCLE   11 ..............................
........................................................................
   1    -83.4026408 -0.834026E+02  0.276E-02    3.26       0.0  T
   2    -83.4026410 -0.117876E-06  0.164E-02    3.26       1.0  T
   3    -83.4026392  0.178307E-05  0.565E-03    3.26       2.3  T
   4    -83.4026411 -0.193362E-05  0.626E-04    3.26      20.6  T
   5    -83.4026411 -0.133201E-07  0.293E-04    3.26      44.1  T
   6    -83.4026411 -0.781242E-09  0.154E-04    3.26      83.8  T
     SCC iter.                  ...        0 min,  0.017 sec
     gradient                   ...        0 min,  0.028 sec
 * total energy  :   -82.3139379 Eh     change       -0.6316348E-04 Eh
   gradient norm :     0.0042483 Eh/α   predicted    -0.4659180E-04 ( -26.24%)
   displ. norm   :     0.0356171 α      lambda       -0.5063417E-04
   maximum displ.:     0.0222914 α      in ANC's #28, #17, #1, ...

........................................................................
.............................. CYCLE   12 ..............................
........................................................................
   1    -83.4032468 -0.834032E+02  0.154E-02    3.26       0.0  T
   2    -83.4032469 -0.513010E-07  0.940E-03    3.26       1.4  T
   3    -83.4032450  0.191829E-05  0.586E-03    3.26       2.2  T
   4    -83.4032471 -0.212642E-05  0.463E-04    3.26      27.9  T
   5    -83.4032471 -0.924589E-08  0.197E-04    3.26      65.7  T
   6    -83.4032471 -0.639673E-09  0.103E-04    3.26     124.9  T
     SCC iter.                  ...        0 min,  0.017 sec
     gradient                   ...        0 min,  0.028 sec
 * total energy  :   -82.3139749 Eh     change       -0.3706811E-04 Eh
   gradient norm :     0.0028766 Eh/α   predicted    -0.2535797E-04 ( -31.59%)
   displ. norm   :     0.0357940 α      lambda       -0.4692189E-04
   maximum displ.:     0.0215816 α      in ANC's #28, #17, #14, ...

........................................................................
.............................. CYCLE   13 ..............................
........................................................................
   1    -83.4039904 -0.834040E+02  0.143E-02    3.25       0.0  T
   2    -83.4039905 -0.557797E-07  0.890E-03    3.25       1.5  T
   3    -83.4039886  0.191976E-05  0.584E-03    3.25       2.2  T
   4    -83.4039907 -0.215582E-05  0.504E-04    3.25      25.6  T
   5    -83.4039907 -0.115410E-07  0.177E-04    3.25      73.0  T
   6    -83.4039907 -0.269878E-09  0.928E-05    3.25     139.0  T
     SCC iter.                  ...        0 min,  0.017 sec
     gradient                   ...        0 min,  0.028 sec
 * total energy  :   -82.3140081 Eh     change       -0.3313129E-04 Eh
   gradient norm :     0.0041183 Eh/α   predicted    -0.2350641E-04 ( -29.05%)
   displ. norm   :     0.0308067 α      lambda       -0.3294929E-04
   maximum displ.:     0.0156851 α      in ANC's #28, #17, #14, ...

........................................................................
.............................. CYCLE   14 ..............................
........................................................................
   1    -83.4044630 -0.834045E+02  0.121E-02    3.25       0.0  T
   2    -83.4044631 -0.433298E-07  0.737E-03    3.25       1.8  T
   3    -83.4044621  0.949260E-06  0.405E-03    3.25       3.2  T
   4    -83.4044632 -0.104155E-05  0.456E-04    3.25      28.3  T
   5    -83.4044632 -0.976158E-08  0.157E-04    3.25      82.3  T
   6    -83.4044632 -0.346176E-09  0.752E-05    3.25     171.6  T
     SCC iter.                  ...        0 min,  0.017 sec
     gradient                   ...        0 min,  0.028 sec
 * total energy  :   -82.3140313 Eh     change       -0.2323147E-04 Eh
   gradient norm :     0.0034745 Eh/α   predicted    -0.1649490E-04 ( -29.00%)
   displ. norm   :     0.0250054 α      lambda       -0.2238925E-04
   maximum displ.:     0.0098539 α      in ANC's #17, #36, #28, ...

........................................................................
.............................. CYCLE   15 ..............................
........................................................................
   1    -83.4045178 -0.834045E+02  0.996E-03    3.25       0.0  T
   2    -83.4045179 -0.475958E-07  0.590E-03    3.25       2.2  T
   3    -83.4045176  0.224761E-06  0.220E-03    3.25       5.9  T
   4    -83.4045179 -0.249976E-06  0.317E-04    3.25      40.7  T
   5    -83.4045179 -0.472011E-08  0.164E-04    3.25      78.8  T
     SCC iter.                  ...        0 min,  0.014 sec
     gradient                   ...        0 min,  0.028 sec
 * total energy  :   -82.3140469 Eh     change       -0.1557477E-04 Eh
   gradient norm :     0.0019295 Eh/α   predicted    -0.1120790E-04 ( -28.04%)
   displ. norm   :     0.0281277 α      lambda       -0.1421113E-04
   maximum displ.:     0.0122115 α      in ANC's #36, #17, #37, ...

........................................................................
.............................. CYCLE   16 ..............................
........................................................................
   1    -83.4041179 -0.834041E+02  0.106E-02    3.24       0.0  T
   2    -83.4041180 -0.953233E-07  0.633E-03    3.24       2.0  T
   3    -83.4041175  0.423116E-06  0.317E-03    3.24       4.1  T
   4    -83.4041180 -0.486254E-06  0.429E-04    3.24      30.1  T
   5    -83.4041180 -0.697730E-08  0.170E-04    3.24      76.1  T
     SCC iter.                  ...        0 min,  0.014 sec
     gradient                   ...        0 min,  0.028 sec
 * total energy  :   -82.3140592 Eh     change       -0.1235595E-04 Eh
   gradient norm :     0.0022406 Eh/α   predicted    -0.7116200E-05 ( -42.41%)
   displ. norm   :     0.0084774 α      lambda       -0.7603910E-05
   maximum displ.:     0.0033463 α      in ANC's #66, #17, #14, ...

........................................................................
.............................. CYCLE   17 ..............................
........................................................................
   1    -83.4038791 -0.834039E+02  0.305E-03    3.24       0.0  T
   2    -83.4038791 -0.860284E-08  0.186E-03    3.24       6.9  T
   3    -83.4038791  0.350259E-07  0.873E-04    3.24      14.8  T
   4    -83.4038791 -0.398040E-07  0.145E-04    3.24      89.0  T
     SCC iter.                  ...        0 min,  0.014 sec
     gradient                   ...        0 min,  0.028 sec
 * total energy  :   -82.3140658 Eh     change       -0.6532737E-05 Eh
   gradient norm :     0.0018166 Eh/α   predicted    -0.3808257E-05 ( -41.71%)
   displ. norm   :     0.0427226 α      lambda       -0.1820807E-04
   maximum displ.:     0.0184330 α      in ANC's #17, #14, #66, ...

........................................................................
.............................. CYCLE   18 ..............................
........................................................................
   1    -83.4031480 -0.834031E+02  0.133E-02    3.24       0.0  T
   2    -83.4031481 -0.982952E-07  0.801E-03    3.24       1.6  T
   3    -83.4031478  0.335293E-06  0.268E-03    3.24       4.8  T
   4    -83.4031482 -0.379534E-06  0.416E-04    3.24      31.1  T
   5    -83.4031482 -0.686512E-08  0.191E-04    3.24      67.5  T
     SCC iter.                  ...        0 min,  0.014 sec
     gradient                   ...        0 min,  0.028 sec
 * total energy  :   -82.3140762 Eh     change       -0.1045287E-04 Eh
   gradient norm :     0.0016854 Eh/α   predicted    -0.9117164E-05 ( -12.78%)
   displ. norm   :     0.0049259 α      lambda       -0.3669929E-05
   maximum displ.:     0.0024172 α      in ANC's #66, #68, #109, ...

........................................................................
.............................. CYCLE   19 ..............................
........................................................................
   1    -83.4035246 -0.834035E+02  0.308E-03    3.24       0.0  T
   2    -83.4035246 -0.140065E-07  0.196E-03    3.24       6.6  T
   3    -83.4035245  0.626787E-07  0.130E-03    3.24       9.9  T
   4    -83.4035246 -0.809392E-07  0.236E-04    3.24      54.6  T
   5    -83.4035246 -0.278561E-08  0.597E-05    3.24     216.3  T
     SCC iter.                  ...        0 min,  0.014 sec
     gradient                   ...        0 min,  0.028 sec
 * total energy  :   -82.3140804 Eh     change       -0.4221261E-05 Eh
   gradient norm :     0.0008675 Eh/α   predicted    -0.1839872E-05 ( -56.41%)
   displ. norm   :     0.0123810 α      lambda       -0.4577118E-05
   maximum displ.:     0.0052445 α      in ANC's #6, #12, #14, ...

   *** GEOMETRY OPTIMIZATION CONVERGED AFTER 19 ITERATIONS ***

------------------------------------------------------------------------
 total energy gain   :        -0.1738658 Eh     -109.1024 kcal/mol
 total RMSD          :         0.0801813 a0        0.0424 Å
 total power (kW/mol):       -24.0254994 (step) -443.6980 (real)
------------------------------------------------------------------------

 ANCopt (total)                0 d,  0 h,  0 min,  1.029 sec
 optimizer setup                ...        0 min,  0.000 sec (  0.010%)
 model hessian                  ...        0 min,  0.033 sec (  3.171%)
 ANC generation                 ...        0 min,  0.003 sec (  0.264%)
 coordinate transformation      ...        0 min,  0.000 sec (  0.027%)
 single point calculation       ...        0 min,  0.986 sec ( 95.859%)
 optimization log               ...        0 min,  0.004 sec (  0.388%)
 hessian update                 ...        0 min,  0.000 sec (  0.042%)
 rational function              ...        0 min,  0.002 sec (  0.162%)

================
 final structure:
================
60
 xtb: 6.5.0 (homebrew)
C            3.48264927511339      -37.74575220749482       15.88466695681830
C            3.72765779983922      -38.12181076622491       17.34386582564718
O            3.26822625520795      -37.06424199404855       18.18759788534799
C            2.89757564424302      -39.36399972486416       17.69008792661792
C            5.23901891865649      -38.26475862935327       17.75047145764435
C            5.74869117802109      -39.70018614718654       17.84903361398462
C            6.17718399232422      -37.45677293282374       16.84550723028281
O            5.28441112767490      -37.65165822292608       19.04153104477153
B            4.16446296970094      -36.89139194884012       19.20522404818385
C            3.91794634378587      -35.90348701491045       20.40271743345050
C            4.93027917921186      -35.92937476318240       21.46686517136377
C            4.94200173629542      -35.20185034335893       22.58606207014806
H            5.81808100257064      -35.27960012161872       23.22109327451253
C            3.86311140485222      -34.30410725314434       23.07100597743793
H            4.09659801755683      -33.91613247800917       24.06260850818883
C            2.48337304428576      -34.91205201060647       23.11890224214633
B            1.73339760938136      -34.90547488354304       24.48347954673600
O            2.23422902644619      -34.36670908662656       25.63820009304119
C            1.36446472447913      -34.70308880795346       26.71765056975635
C            1.21166982936076      -33.50106074079967       27.64712248677500
C            2.03362381913017      -35.84974020898939       27.48673386025769
C            0.04502595145991      -35.14740305098174       25.98754298824885
C           -0.98020864555436      -34.01302564525488       25.86118116710462
C           -0.64196588512167      -36.37190306617858       26.58878377971370
O            0.49293285004325      -35.45375322058602       24.66853685820467
C            1.90977278447960      -35.47559975808930       22.04960703279625
C            2.44768269028610      -35.59490895840123       20.69857103004798
H            1.77260395317275      -36.08172772485085       20.00535897909952
C            3.32992339197730      -34.56485698444111       20.05335219902192
C            3.83060901171809      -33.37284649471894       20.73239660497138
C            4.11255488191746      -33.27396578282464       22.03376437669950
H            4.56720695404022      -32.35098777361405       22.37734815154631
H            2.41073137125367      -37.68831186808449       15.71208825173150
H            3.90517333374412      -38.49922164618494       15.22575370840906
H            3.91272557340950      -36.77721038116095       15.65105949802707
H            1.84583240387545      -39.13018136227308       17.54150439453955
H            3.03816456544895      -39.63188330617287       18.73426741317700
H            3.16557491826743      -40.20330293773907       17.05541345076449
H            5.63761709645257      -40.20493435447418       16.89311518341673
H            5.21708373096782      -40.25408153086941       18.61581670674000
H            6.80221676447414      -39.68188071804032       18.11651082369821
H            6.22717542207171      -37.88446820830363       15.84878710227552
H            7.17177505485859      -37.46430905327050       17.28523526920889
H            5.84479952887948      -36.42326226583171       16.78721712608275
H            5.79573151936358      -36.53343210971214       21.22866062979228
H            2.17245700477660      -33.28775342996271       28.10912637842546
H            0.48782342814422      -33.72042049116934       28.42753855825438
H            0.89809449295927      -32.61812054549516       27.09975465916343
H            3.01453486479930      -35.51712568940748       27.81863597092557
H            2.17352428517833      -36.70765624992814       26.83384421389309
H            1.44614726931994      -36.13778068740084       28.35338602808731
H           -1.39675406170717      -33.75067100966866       26.82913934232835
H           -1.78375203391143      -34.34675395917549       25.20862722782837
H           -0.52124018696076      -33.13853430813262       25.40706829090828
H           -0.90880470531649      -36.18260066467294       27.62504173732950
H           -0.00363851870166      -37.24750335270564       26.53179576548266
H           -1.54778882939568      -36.57882602591988       26.02434148118799
H            0.92284546942335      -35.90052436094188       22.18282836788402
H            3.13489784999296      -34.41095623438144       18.99702923789242
H            4.09603155177610      -32.55105450247490       20.07928279197859

 Bond Distances (Angstroems)
 ---------------------------
C1-C2=1.5267         C1-H33=1.0872        C1-H34=1.0865        C1-H35=1.0852        C2-C1=1.5267         C2-O3=1.4288         
C2-C4=1.5336         C2-C5=1.5716         O3-C2=1.4288         O3-B9=1.3670         C4-C2=1.5336         C4-H36=1.0876        
C4-H37=1.0871        C4-H38=1.0858        C5-C2=1.5716         C5-C6=1.5264         C5-C7=1.5336         C5-O8=1.4300         
C6-C5=1.5264         C6-H39=1.0867        C6-H40=1.0851        C6-H41=1.0871        C7-C5=1.5336         C7-H42=1.0858        
C7-H43=1.0875        C7-H44=1.0872        O8-C5=1.4300         O8-B9=1.3635         B9-O3=1.3670         B9-O8=1.3635         
B9-C10=1.5719        C10-B9=1.5719        C10-C11=1.4690       C10-C27=1.5312       C10-C29=1.5032       C11-C10=1.4690       
C11-C12=1.3349       C11-H45=1.0820       C12-C11=1.3349       C12-H13=1.0848       C12-C14=1.4850       H13-C12=1.0848       
C14-C12=1.4850       C14-H15=1.0901       C14-C16=1.5085       C14-C31=1.4830       H15-C14=1.0901       C16-C14=1.5085       
C16-B17=1.5571       C16-C26=1.3379       B17-C16=1.5571       B17-O18=1.3691       B17-O25=1.3688       O18-B17=1.3691       
O18-C19=1.4265       C19-O18=1.4265       C19-C20=1.5271       C19-C21=1.5343       C19-C22=1.5721       C20-C19=1.5271       
C20-H46=1.0872       C20-H47=1.0868       C20-H48=1.0851       C21-C19=1.5343       C21-H49=1.0876       C21-H50=1.0871       
C21-H51=1.0859       C22-C19=1.5721       C22-C23=1.5342       C22-C24=1.5274       C22-O25=1.4263       C23-C22=1.5342       
C23-H52=1.0859       C23-H53=1.0876       C23-H54=1.0870       C24-C22=1.5274       C24-H55=1.0867       C24-H56=1.0851       
C24-H57=1.0872       O25-B17=1.3688       O25-C22=1.4263       C26-C16=1.3379       C26-C27=1.4591       C26-H58=1.0827       
C27-C10=1.5312       C27-C26=1.4591       C27-H28=1.0832       C27-C29=1.5019       H28-C27=1.0832       C29-C10=1.5032       
C29-C27=1.5019       C29-C30=1.4604       C29-H59=1.0851       C30-C29=1.4604       C30-C31=1.3352       C30-H60=1.0828       
C31-C14=1.4830       C31-C30=1.3352       C31-H32=1.0847       H32-C31=1.0847       H33-C1=1.0872        H34-C1=1.0865        
H35-C1=1.0852        H36-C4=1.0876        H37-C4=1.0871        H38-C4=1.0858        H39-C6=1.0867        H40-C6=1.0851        
H41-C6=1.0871        H42-C7=1.0858        H43-C7=1.0875        H44-C7=1.0872        H45-C11=1.0820       H46-C20=1.0872       
H47-C20=1.0868       H48-C20=1.0851       H49-C21=1.0876       H50-C21=1.0871       H51-C21=1.0859       H52-C23=1.0859       
H53-C23=1.0876       H54-C23=1.0870       H55-C24=1.0867       H56-C24=1.0851       H57-C24=1.0872       H58-C26=1.0827       
H59-C29=1.0851       H60-C30=1.0828       
 C  H  Rav=1.0860 sigma=0.0017  Rmin=1.0820  Rmax=1.0901    32
 C  B  Rav=1.5645 sigma=0.0074  Rmin=1.5571  Rmax=1.5719     2
 C  C  Rav=1.4907 sigma=0.0682  Rmin=1.3349  Rmax=1.5721    22
 O  B  Rav=1.3671 sigma=0.0022  Rmin=1.3635  Rmax=1.3691     4
 O  C  Rav=1.4279 sigma=0.0016  Rmin=1.4263  Rmax=1.4300     4

 selected bond angles (degree)
 --------------------
H33-C1-C2=108.84               H34-C1-C2=110.27               H34-C1-H33=108.89              H35-C1-C2=111.22               
H35-C1-H33=108.02              H35-C1-H34=109.53              O3-C2-C1=109.30                C4-C2-C1=109.17                
C4-C2-O3=106.99                C5-C2-C1=115.09                C5-C2-O3=102.93                C5-C2-C4=112.86                
B9-O3-C2=108.81                H36-C4-C2=108.57               H37-C4-C2=110.27               H37-C4-H36=108.01              
H38-C4-C2=111.13               H38-C4-H36=108.96              H38-C4-H37=109.82              C6-C5-C2=115.05                
C7-C5-C2=112.81                C7-C5-C6=109.23                O8-C5-C2=103.01                O8-C5-C6=109.53                
O8-C5-C7=106.71                H39-C6-C5=110.23               H40-C6-C5=111.23               H40-C6-H39=109.54              
H41-C6-C5=108.88               H41-C6-H39=108.86              H41-C6-H40=108.03              H42-C7-C5=111.24               
H43-C7-C5=108.50               H43-C7-H42=109.05              H44-C7-C5=110.21               H44-C7-H42=109.84              
H44-C7-H43=107.93              B9-O8-C5=108.75                O8-B9-O3=112.25                C10-B9-O3=122.94               
C10-B9-O8=124.80               C11-C10-B9=115.64              C27-C10-B9=115.12              C27-C10-C11=121.69             
C29-C10-B9=116.36              C29-C10-C11=116.98             C29-C10-C27= 59.32             

 selected dihedral angles (degree)
 ---------------------------------
O3-C2-C1-H33=294.41           O3-C2-C1-H34=175.02           O3-C2-C1-H35= 53.31           C4-C2-C1-H33= 51.12           
C4-C2-C1-H34=291.73           C4-C2-C1-H35=170.02           C5-C2-C1-H33=179.21           C5-C2-C1-H34= 59.82           
C5-C2-C1-H35=298.11           B9-O3-C2-C1=220.53            B9-O3-C2-C4=102.44            B9-O3-C2-C5=343.31            
H36-C4-C2-C1=299.68           H36-C4-C2-O3= 57.85           H36-C4-C2-C5=170.35           H37-C4-C2-C1=181.52           
H37-C4-C2-O3=299.70           H37-C4-C2-C5= 52.20           H38-C4-C2-C1= 59.51           H38-C4-C2-O3=177.68           
H38-C4-C2-C5=290.18           C6-C5-C2-C1=258.22            C6-C5-C2-O3=139.41            C6-C5-C2-C4= 24.45            
C7-C5-C2-C1= 24.44            C7-C5-C2-O3=265.63            C7-C5-C2-C4=150.66            O8-C5-C2-C1=139.10            
O8-C5-C2-O3= 20.29            O8-C5-C2-C4=265.32            H39-C6-C5-C2= 59.61           H39-C6-C5-C7=291.57           
H39-C6-C5-O8=175.04           H40-C6-C5-C2=297.90           H40-C6-C5-C7=169.86           H40-C6-C5-O8= 53.33           
H41-C6-C5-C2=178.97           H41-C6-C5-C7= 50.93           H41-C6-C5-O8=294.40           H42-C7-C5-C2=290.29           
H42-C7-C5-C6= 59.56           H42-C7-C5-O8=177.88           H43-C7-C5-C2=170.34           H43-C7-C5-C6=299.61           
H43-C7-C5-O8= 57.93           H44-C7-C5-C2= 52.36           H44-C7-C5-C6=181.64           H44-C7-C5-O8=299.95           
B9-O8-C5-C2=342.91            B9-O8-C5-C6=220.02            B9-O8-C5-C7=101.91            O8-B9-O3-C2=  6.89            
C10-B9-O3-C2=185.90           O3-B9-O8-C5=  7.55            C10-B9-O8-C5=188.57           C11-C10-B9-O3=174.87          
C11-C10-B9-O8=353.75          C27-C10-B9-O3= 24.58          C27-C10-B9-O8=203.46          C29-C10-B9-O3=317.94          
C29-C10-B9-O8=136.82          
           -------------------------------------------------
          |                Final Singlepoint                |
           -------------------------------------------------

          ...................................................
          :                      SETUP                      :
          :.................................................:
          :  # basis functions                 144          :
          :  # atomic orbitals                 144          :
          :  # shells                           88          :
          :  # electrons                       150          :
          :  max. iterations                   250          :
          :  Hamiltonian                  GFN2-xTB          :
          :  restarted?                      false          :
          :  GBSA solvation                  false          :
          :  PC potential                    false          :
          :  electronic temp.          300.0000000     K    :
          :  accuracy                    1.0000000          :
          :  -> integral cutoff          0.2500000E+02      :
          :  -> integral neglect         0.1000000E-07      :
          :  -> SCF convergence          0.1000000E-05 Eh   :
          :  -> wf. convergence          0.1000000E-03 e    :
          :  Broyden damping             0.4000000          :
          ...................................................

 iter      E             dE          RMSdq      gap      omega  full diag
   1    -83.4035246 -0.834035E+02  0.412E-05    3.24       0.0  T
   2    -83.4035246 -0.132161E-11  0.292E-05    3.24     441.6  T
   3    -83.4035246 -0.404441E-10  0.155E-05    3.24     831.7  T

   *** convergence criteria satisfied after 3 iterations ***

         #    Occupation            Energy/Eh            Energy/eV
      -------------------------------------------------------------
         1        2.0000           -0.6942210             -18.8907
       ...           ...                  ...                  ...
        69        2.0000           -0.4040768             -10.9955
        70        2.0000           -0.4015300             -10.9262
        71        2.0000           -0.3982689             -10.8374
        72        2.0000           -0.3944239             -10.7328
        73        2.0000           -0.3821178             -10.3980
        74        2.0000           -0.3610058              -9.8235
        75        2.0000           -0.3410035              -9.2792 (HOMO)
        76                         -0.2219699              -6.0401 (LUMO)
        77                         -0.1954469              -5.3184
        78                         -0.1736823              -4.7261
        79                         -0.1448935              -3.9428
        80                         -0.0941012              -2.5606
       ...                                ...                  ...
       144                          0.6848209              18.6349
      -------------------------------------------------------------
                  HL-Gap            0.1190335 Eh            3.2391 eV
             Fermi-level           -0.2814867 Eh           -7.6596 eV

 SCC (total)                   0 d,  0 h,  0 min,  0.043 sec
 SCC setup                      ...        0 min,  0.000 sec (  0.538%)
 Dispersion                     ...        0 min,  0.000 sec (  0.883%)
 classical contributions        ...        0 min,  0.000 sec (  0.401%)
 integral evaluation            ...        0 min,  0.006 sec ( 14.107%)
 iterations                     ...        0 min,  0.008 sec ( 19.582%)
 molecular gradient             ...        0 min,  0.027 sec ( 63.729%)
 printout                       ...        0 min,  0.000 sec (  0.751%)

         :::::::::::::::::::::::::::::::::::::::::::::::::::::
         ::                     SUMMARY                     ::
         :::::::::::::::::::::::::::::::::::::::::::::::::::::
         :: total energy             -82.314080428263 Eh    ::
         :: gradient norm              0.000868200717 Eh/a0 ::
         :: HOMO-LUMO gap              3.239067565570 eV    ::
         ::.................................................::
         :: SCC energy               -83.403524588168 Eh    ::
         :: -> isotropic ES            0.148147444256 Eh    ::
         :: -> anisotropic ES          0.010997558878 Eh    ::
         :: -> anisotropic XC          0.026674537015 Eh    ::
         :: -> dispersion             -0.062051302131 Eh    ::
         :: repulsion energy           1.088624864291 Eh    ::
         :: add. restraining           0.000162732737 Eh    ::
         :: total charge              -0.000000000000 e     ::
         :::::::::::::::::::::::::::::::::::::::::::::::::::::

           -------------------------------------------------
          |                Property Printout                |
           -------------------------------------------------

    * Orbital Energies and Occupations

         #    Occupation            Energy/Eh            Energy/eV
      -------------------------------------------------------------
         1        2.0000           -0.6942210             -18.8907
       ...           ...                  ...                  ...
        63        2.0000           -0.4374286             -11.9030
        64        2.0000           -0.4351977             -11.8423
        65        2.0000           -0.4293271             -11.6826
        66        2.0000           -0.4243656             -11.5476
        67        2.0000           -0.4177921             -11.3687
        68        2.0000           -0.4106757             -11.1751
        69        2.0000           -0.4040768             -10.9955
        70        2.0000           -0.4015300             -10.9262
        71        2.0000           -0.3982689             -10.8374
        72        2.0000           -0.3944239             -10.7328
        73        2.0000           -0.3821178             -10.3980
        74        2.0000           -0.3610058              -9.8235
        75        2.0000           -0.3410035              -9.2792 (HOMO)
        76                         -0.2219699              -6.0401 (LUMO)
        77                         -0.1954469              -5.3184
        78                         -0.1736823              -4.7261
        79                         -0.1448935              -3.9428
        80                         -0.0941012              -2.5606
        81                          0.0001827               0.0050
        82                          0.0124910               0.3399
        83                          0.0193900               0.5276
        84                          0.0276673               0.7529
        85                          0.0314151               0.8548
        86                          0.0525306               1.4294
       ...                                ...                  ...
       144                          0.6848209              18.6349
      -------------------------------------------------------------
                  HL-Gap            0.1190335 Eh            3.2391 eV
             Fermi-level           -0.2814867 Eh           -7.6596 eV

     #   Z          covCN         q      C6AA      α(0)
     1   6 C        3.755    -0.118    22.806     6.809
     2   6 C        3.859     0.130    18.443     6.108
     3   8 O        1.638    -0.377    20.414     6.099
     4   6 C        3.755    -0.117    22.790     6.807
     5   6 C        3.861     0.129    18.451     6.109
     6   6 C        3.755    -0.118    22.817     6.811
     7   6 C        3.755    -0.117    22.787     6.807
     8   8 O        1.638    -0.370    20.287     6.080
     9   5 B        2.658     0.441    15.457     6.620
    10   6 C        3.835    -0.057    21.566     6.607
    11   6 C        2.892    -0.051    29.257     8.868
    12   6 C        3.069    -0.027    28.609     8.770
    13   1 H        0.925     0.023     2.685     2.562
    14   6 C        3.867    -0.015    20.800     6.485
    15   1 H        0.925     0.043     2.406     2.426
    16   6 C        2.865    -0.087    30.187     9.006
    17   5 B        2.660     0.431    15.570     6.643
    18   8 O        1.638    -0.372    20.329     6.086
    19   6 C        3.859     0.129    18.453     6.109
    20   6 C        3.755    -0.117    22.791     6.807
    21   6 C        3.755    -0.116    22.769     6.804
    22   6 C        3.858     0.129    18.450     6.109
    23   6 C        3.755    -0.116    22.776     6.805
    24   6 C        3.755    -0.117    22.798     6.808
    25   8 O        1.638    -0.374    20.359     6.091
    26   6 C        2.895    -0.027    28.672     8.779
    27   6 C        3.860    -0.018    20.864     6.496
    28   1 H        0.925     0.040     2.454     2.450
    29   6 C        3.866    -0.004    20.605     6.455
    30   6 C        2.890    -0.048    29.184     8.857
    31   6 C        3.070    -0.025    28.545     8.760
    32   1 H        0.925     0.024     2.675     2.558
    33   1 H        0.925     0.055     2.253     2.347
    34   1 H        0.925     0.041     2.438     2.442
    35   1 H        0.925     0.052     2.292     2.368
    36   1 H        0.925     0.053     2.283     2.363
    37   1 H        0.925     0.044     2.390     2.418
    38   1 H        0.925     0.044     2.401     2.423
    39   1 H        0.925     0.041     2.432     2.439
    40   1 H        0.925     0.053     2.280     2.361
    41   1 H        0.925     0.056     2.248     2.345
    42   1 H        0.925     0.044     2.396     2.421
    43   1 H        0.925     0.054     2.274     2.358
    44   1 H        0.925     0.044     2.401     2.423
    45   1 H        0.925     0.032     2.556     2.500
    46   1 H        0.925     0.054     2.274     2.358
    47   1 H        0.925     0.039     2.463     2.454
    48   1 H        0.925     0.052     2.300     2.372
    49   1 H        0.925     0.052     2.300     2.372
    50   1 H        0.925     0.043     2.405     2.425
    51   1 H        0.925     0.042     2.428     2.437
    52   1 H        0.925     0.042     2.423     2.434
    53   1 H        0.925     0.052     2.300     2.371
    54   1 H        0.925     0.044     2.402     2.424
    55   1 H        0.925     0.039     2.459     2.452
    56   1 H        0.925     0.052     2.301     2.372
    57   1 H        0.925     0.054     2.275     2.359
    58   1 H        0.925     0.037     2.495     2.470
    59   1 H        0.925     0.032     2.556     2.500
    60   1 H        0.925     0.022     2.700     2.570

 Mol. C6AA /au·bohr⁶  :      32804.891530
 Mol. C8AA /au·bohr⁸  :     759375.044652
 Mol. α(0) /au        :        273.166725


Wiberg/Mayer (AO) data.
largest (>0.10) Wiberg bond orders for each atom

 ---------------------------------------------------------------------------
     #   Z sym  total        # sym  WBO       # sym  WBO       # sym  WBO
 ---------------------------------------------------------------------------
     1   6 C    3.994 --     2 C    0.997    34 H    0.984    33 H    0.982
                            35 H    0.982
     2   6 C    3.941 --     1 C    0.997     4 C    0.991     3 O    0.949
                             5 C    0.937
     3   8 O    2.228 --     9 B    1.131     2 C    0.949
     4   6 C    3.994 --     2 C    0.991    38 H    0.984    37 H    0.984
                            36 H    0.983
     5   6 C    3.940 --     6 C    0.997     7 C    0.991     8 O    0.948
                             2 C    0.937
     6   6 C    3.994 --     5 C    0.997    39 H    0.984    41 H    0.982
                            40 H    0.982
     7   6 C    3.995 --     5 C    0.991    42 H    0.984    44 H    0.984
                            43 H    0.983
     8   8 O    2.237 --     9 B    1.142     5 C    0.948
     9   5 B    3.375 --     8 O    1.142     3 O    1.131    10 C    0.986
    10   6 C    3.932 --    11 C    1.080     9 B    0.986    27 C    0.852
                            29 C    0.845
    11   6 C    3.988 --    12 C    1.822    10 C    1.080    45 H    0.965
    12   6 C    3.987 --    11 C    1.822    14 C    0.974    13 H    0.967
    13   1 H    0.999 --    12 C    0.967
    14   6 C    3.992 --    16 C    0.980    31 C    0.979    12 C    0.974
                            15 H    0.970
    15   1 H    0.998 --    14 C    0.970
    16   6 C    3.976 --    26 C    1.804    17 B    1.007    14 C    0.980
    17   5 B    3.376 --    18 O    1.124    25 O    1.124    16 C    1.007
    18   8 O    2.230 --    17 B    1.124    19 C    0.954
    19   6 C    3.944 --    20 C    0.997    21 C    0.990    18 O    0.954
                            22 C    0.936
    20   6 C    3.994 --    19 C    0.997    47 H    0.985    46 H    0.983
                            48 H    0.982
    21   6 C    3.994 --    19 C    0.990    51 H    0.985    50 H    0.984
                            49 H    0.983
    22   6 C    3.943 --    24 C    0.996    23 C    0.990    25 O    0.955
                            19 C    0.936
    23   6 C    3.995 --    22 C    0.990    52 H    0.985    54 H    0.984
                            53 H    0.983
    24   6 C    3.994 --    22 C    0.996    55 H    0.985    57 H    0.983
                            56 H    0.982
    25   8 O    2.229 --    17 B    1.124    22 C    0.955
    26   6 C    3.989 --    16 C    1.804    27 C    1.080    58 H    0.964
    27   6 C    3.942 --    26 C    1.080    28 H    0.970    29 C    0.906
                            10 C    0.852
    28   1 H    0.998 --    27 C    0.970
    29   6 C    3.951 --    30 C    1.089    59 H    0.970    27 C    0.906
                            10 C    0.845
    30   6 C    3.987 --    31 C    1.814    29 C    1.089    60 H    0.967
    31   6 C    3.985 --    30 C    1.814    14 C    0.979    32 H    0.968
    32   1 H    0.999 --    31 C    0.968
    33   1 H    0.997 --     1 C    0.982
    34   1 H    0.998 --     1 C    0.984
    35   1 H    0.997 --     1 C    0.982
    36   1 H    0.997 --     4 C    0.983
    37   1 H    0.998 --     4 C    0.984
    38   1 H    0.998 --     4 C    0.984
    39   1 H    0.998 --     6 C    0.984
    40   1 H    0.997 --     6 C    0.982
    41   1 H    0.997 --     6 C    0.982
    42   1 H    0.998 --     7 C    0.984
    43   1 H    0.997 --     7 C    0.983
    44   1 H    0.998 --     7 C    0.984
    45   1 H    0.999 --    11 C    0.965
    46   1 H    0.997 --    20 C    0.983
    47   1 H    0.998 --    20 C    0.985
    48   1 H    0.997 --    20 C    0.982
    49   1 H    0.997 --    21 C    0.983
    50   1 H    0.998 --    21 C    0.984
    51   1 H    0.998 --    21 C    0.985
    52   1 H    0.998 --    23 C    0.985
    53   1 H    0.997 --    23 C    0.983
    54   1 H    0.998 --    23 C    0.984
    55   1 H    0.998 --    24 C    0.985
    56   1 H    0.997 --    24 C    0.982
    57   1 H    0.997 --    24 C    0.983
    58   1 H    0.998 --    26 C    0.964
    59   1 H    0.999 --    29 C    0.970
    60   1 H    0.999 --    30 C    0.967
 ---------------------------------------------------------------------------

Topologies differ in total number of bonds
Writing topology from bond orders to xtbtopo.mol

molecular dipole:
                 x           y           z       tot (Debye)
 q only:       -0.207      -0.573      -0.231
   full:       -0.215      -0.657      -0.270       1.885
molecular quadrupole (traceless):
                xx          xy          yy          xz          yz          zz
 q only:      -41.718      12.587      81.291     -27.732      -1.375     -39.573
  q+dip:      -47.130      13.928      91.566     -28.610      -0.562     -44.436
   full:      -47.328      13.073      93.176     -29.779      -1.920     -45.848

           -------------------------------------------------
          |                Geometry Summary                 |
           -------------------------------------------------

      molecular mass/u    :      382.1099696
   center of mass at/Å    :        2.9518639     -35.9366365      21.8309712
  moments of inertia/u·Å² :        0.1164489E+04   0.6842292E+04   0.7141020E+04
rotational constants/cm⁻¹ :        0.1447642E-01   0.2463741E-02   0.2360676E-02

 * 61 selected distances

     #   Z          #   Z                                           value/Å
     1   6 C        2   6 C                                       1.5266666
     2   6 C        3   8 O                                       1.4287803
     2   6 C        4   6 C                                       1.5336036
     5   6 C        6   6 C                                       1.5264118
     5   6 C        7   6 C                                       1.5336086
     5   6 C        8   8 O                                       1.4299608
     3   8 O        9   5 B                                       1.3669970
     8   8 O        9   5 B                                       1.3634825
     9   5 B       10   6 C                                       1.5718516 (max)
    10   6 C       11   6 C                                       1.4689788
    11   6 C       12   6 C                                       1.3349274
    12   6 C       13   1 H                                       1.0848155
    12   6 C       14   6 C                                       1.4849640
    14   6 C       15   1 H                                       1.0900992
    16   6 C       17   5 B                                       1.5571057
    17   5 B       18   8 O                                       1.3691167
    18   8 O       19   6 C                                       1.4264834
    19   6 C       20   6 C                                       1.5271333
    19   6 C       21   6 C                                       1.5342988
    22   6 C       23   6 C                                       1.5342379
    22   6 C       24   6 C                                       1.5273667
    17   5 B       25   8 O                                       1.3687982
    22   6 C       25   8 O                                       1.4262709
    16   6 C       26   6 C                                       1.3379073
    10   6 C       27   6 C                                       1.5311517
    26   6 C       27   6 C                                       1.4590683
    27   6 C       28   1 H                                       1.0831745
    10   6 C       29   6 C                                       1.5032491
    27   6 C       29   6 C                                       1.5018866
    29   6 C       30   6 C                                       1.4603687
    14   6 C       31   6 C                                       1.4829983
    30   6 C       31   6 C                                       1.3352263
    31   6 C       32   1 H                                       1.0847336
     1   6 C       33   1 H                                       1.0872401
     1   6 C       34   1 H                                       1.0864666
     1   6 C       35   1 H                                       1.0851781
     4   6 C       36   1 H                                       1.0876177
     4   6 C       37   1 H                                       1.0871237
     4   6 C       38   1 H                                       1.0858478
     6   6 C       39   1 H                                       1.0866869
     6   6 C       40   1 H                                       1.0850636
     6   6 C       41   1 H                                       1.0871042
     7   6 C       42   1 H                                       1.0857595
     7   6 C       43   1 H                                       1.0874875
     7   6 C       44   1 H                                       1.0872082
    11   6 C       45   1 H                                       1.0819587 (min)
    20   6 C       46   1 H                                       1.0872257
    20   6 C       47   1 H                                       1.0867943
    20   6 C       48   1 H                                       1.0851381
    21   6 C       49   1 H                                       1.0876480
    21   6 C       50   1 H                                       1.0871326
    21   6 C       51   1 H                                       1.0859016
    23   6 C       52   1 H                                       1.0859481
    23   6 C       53   1 H                                       1.0876044
    23   6 C       54   1 H                                       1.0870170
    24   6 C       55   1 H                                       1.0866780
    24   6 C       56   1 H                                       1.0850740
    24   6 C       57   1 H                                       1.0871650
    26   6 C       58   1 H                                       1.0827440
    29   6 C       59   1 H                                       1.0851446
    30   6 C       60   1 H                                       1.0827507

 * 5 distinct bonds (by element types)

   Z      Z             #   av. dist./Å        max./Å        min./Å
   1 H    6 C          32     1.0860479     1.0900992     1.0819587
   5 B    6 C           2     1.5644786     1.5718516     1.5571057
   6 C    6 C          19     1.4812660     1.5342988     1.3349274
   5 B    8 O           4     1.3670986     1.3691167     1.3634825
   6 C    8 O           4     1.4278738     1.4299608     1.4262709


optimized geometry written to: xtbopt.xyz


           -------------------------------------------------
          | TOTAL ENERGY              -82.314080428263 Eh   |
          | GRADIENT NORM               0.000868200717 Eh/α |
          | HOMO-LUMO GAP               3.239067565570 eV   |
           -------------------------------------------------

------------------------------------------------------------------------
 * finished run on 2022/07/09 at 18:33:41.537     
------------------------------------------------------------------------
 total:
 * wall-time:     0 d,  0 h,  0 min,  1.154 sec
 *  cpu-time:     0 d,  0 h,  0 min,  1.153 sec
 * ratio c/w:     0.999 speedup
 SCF:
 * wall-time:     0 d,  0 h,  0 min,  0.069 sec
 *  cpu-time:     0 d,  0 h,  0 min,  0.069 sec
 * ratio c/w:     1.000 speedup
 ANC optimizer:
 * wall-time:     0 d,  0 h,  0 min,  1.073 sec
 *  cpu-time:     0 d,  0 h,  0 min,  1.073 sec
 * ratio c/w:     0.999 speedup

