      -----------------------------------------------------------      
     |                   =====================                   |     
     |                           x T B                           |     
     |                   =====================                   |     
     |                         S. Grimme                         |     
     |          Mulliken Center for Theoretical Chemistry        |     
     |                    University of Bonn                     |     
      -----------------------------------------------------------      

   * xtb version 6.5.0 (homebrew) compiled by 'nhattrup@GPGGRP-SHANNON.CHEME.CMU.EDU' on 

   xtb is free software: you can redistribute it and/or modify it under
   the terms of the GNU Lesser General Public License as published by
   the Free Software Foundation, either version 3 of the License, or
   (at your option) any later version.
   
   xtb is distributed in the hope that it will be useful,
   but WITHOUT ANY WARRANTY; without even the implied warranty of
   MERCHANTABILITY or FITNESS FOR A PARTICULAR PURPOSE.  See the
   GNU Lesser General Public License for more details.
   
   Cite this work as:
   * C. Bannwarth, E. Caldeweyher, S. Ehlert, A. Hansen, P. Pracht,
     J. Seibert, S. Spicher, S. Grimme, WIREs Comput. Mol. Sci., 2020, 11,
     e01493. DOI: 10.1002/wcms.1493
   
   for GFN2-xTB:
   * C. Bannwarth, S. Ehlert and S. Grimme., J. Chem. Theory Comput., 2019,
     15, 1652-1671. DOI: 10.1021/acs.jctc.8b01176
   for GFN1-xTB:
   * S. Grimme, C. Bannwarth, P. Shushkov, J. Chem. Theory Comput., 2017,
     13, 1989-2009. DOI: 10.1021/acs.jctc.7b00118
   for GFN0-xTB:
   * P. Pracht, E. Caldeweyher, S. Ehlert, S. Grimme, ChemRxiv, 2019, preprint.
     DOI: 10.26434/chemrxiv.8326202.v1
   for GFN-FF:
   * S. Spicher and S. Grimme, Angew. Chem. Int. Ed., 2020, 59, 15665-15673.
     DOI: 10.1002/anie.202004239
   
   for ALPB and GBSA implicit solvation:
   * S. Ehlert, M. Stahn, S. Spicher, S. Grimme, J. Chem. Theory Comput.,
     2021, 17, 4250-4261. DOI: 10.1021/acs.jctc.1c00471
   
   for DFT-D4:
   * E. Caldeweyher, C. Bannwarth and S. Grimme, J. Chem. Phys., 2017,
     147, 034112. DOI: 10.1063/1.4993215
   * E. Caldeweyher, S. Ehlert, A. Hansen, H. Neugebauer, S. Spicher,
     C. Bannwarth and S. Grimme, J. Chem. Phys., 2019, 150, 154122.
     DOI: 10.1063/1.5090222
   * E. Caldeweyher, J.-M. Mewes, S. Ehlert and S. Grimme, Phys. Chem. Chem. Phys.
     2020, 22, 8499-8512. DOI: 10.1039/D0CP00502A
   
   for sTDA-xTB:
   * S. Grimme and C. Bannwarth, J. Chem. Phys., 2016, 145, 054103.
     DOI: 10.1063/1.4959605
   
   in the mass-spec context:
   * V. Asgeirsson, C. Bauer and S. Grimme, Chem. Sci., 2017, 8, 4879.
     DOI: 10.1039/c7sc00601b
   * J. Koopman and S. Grimme, ACS Omega 2019, 4, 12, 15120-15133.
     DOI: 10.1021/acsomega.9b02011
   
   for metadynamics refer to:
   * S. Grimme, J. Chem. Theory Comput., 2019, 155, 2847-2862
     DOI: 10.1021/acs.jctc.9b00143
   
   for SPH calculations refer to:
   * S. Spicher and S. Grimme, J. Chem. Theory Comput., 2021, 17, 1701-1714
     DOI: 10.1021/acs.jctc.0c01306
   
   with help from (in alphabetical order)
   P. Atkinson, C. Bannwarth, F. Bohle, G. Brandenburg, E. Caldeweyher
   M. Checinski, S. Dohm, S. Ehlert, S. Ehrlich, I. Gerasimov, C. Hölzer
   A. Katbashev, J. Koopman, C. Lavigne, S. Lehtola, F. März, M. Müller,
   F. Musil, H. Neugebauer, J. Pisarek, C. Plett, P. Pracht, F. Pultar,
   J. Seibert, P. Shushkov, S. Spicher, M. Stahn, M. Steiner, T. Strunk,
   J. Stückrath, T. Rose, and J. Unsleber
   
 * started run on 2022/07/09 at 18:33:32.290     

           -------------------------------------------------
          |                Calculation Setup                |
           -------------------------------------------------

          program call               : /opt/homebrew/bin/xtb bvl_bpin2_scan_8-4_xtb.xyz --chrg 0 --uhf 0 --opt --input xcontrol_bvl_bpin2_scan_8-4_xtb
          coordinate file            : bvl_bpin2_scan_8-4_xtb.xyz
          omp threads                :                     1

   ID    Z sym.   atoms
    1    6 C      1, 2, 4-7, 10-12, 14, 16, 19-24, 26, 27, 29-31
    2    8 O      3, 8, 18, 25
    3    5 B      9, 17
    4    1 H      13, 15, 28, 32-60
constraining bond 12 31 to    2.3889000 Å, actual value:    2.2757671 Å
constraining bond 10 29 to    2.0556000 Å, actual value:    2.1633590 Å

           -------------------------------------------------
          |                 G F N 2 - x T B                 |
           -------------------------------------------------

        Reference                      10.1021/acs.jctc.8b01176
      * Hamiltonian:
        H0-scaling (s, p, d)           1.850000    2.230000    2.230000
        zeta-weighting                 0.500000
      * Dispersion:
        s8                             2.700000
        a1                             0.520000
        a2                             5.000000
        s9                             5.000000
      * Repulsion:
        kExp                           1.500000    1.000000
        rExp                           1.000000
      * Coulomb:
        alpha                          2.000000
        third order                    shell-resolved
        anisotropic                    true
        a3                             3.000000
        a5                             4.000000
        cn-shift                       1.200000
        cn-exp                         4.000000
        max-rad                        5.000000


          ...................................................
          :                      SETUP                      :
          :.................................................:
          :  # basis functions                 144          :
          :  # atomic orbitals                 144          :
          :  # shells                           88          :
          :  # electrons                       150          :
          :  max. iterations                   250          :
          :  Hamiltonian                  GFN2-xTB          :
          :  restarted?                      false          :
          :  GBSA solvation                  false          :
          :  PC potential                    false          :
          :  electronic temp.          300.0000000     K    :
          :  accuracy                    1.0000000          :
          :  -> integral cutoff          0.2500000E+02      :
          :  -> integral neglect         0.1000000E-07      :
          :  -> SCF convergence          0.1000000E-05 Eh   :
          :  -> wf. convergence          0.1000000E-03 e    :
          :  Broyden damping             0.4000000          :
          ...................................................

 iter      E             dE          RMSdq      gap      omega  full diag
   1    -82.9301591 -0.829302E+02  0.474E+00    1.91       0.0  T
   2    -83.2975558 -0.367397E+00  0.294E+00    1.82       1.0  T
   3    -83.2701059  0.274500E-01  0.174E+00    2.09       1.0  T
   4    -83.2400204  0.300855E-01  0.136E+00    2.13       1.0  T
   5    -83.3575397 -0.117519E+00  0.288E-01    1.89       1.0  T
   6    -83.3621596 -0.461984E-02  0.117E-01    1.89       1.0  T
   7    -83.3621724 -0.128359E-04  0.448E-02    1.89       1.0  T
   8    -83.3622275 -0.551098E-04  0.193E-02    1.89       1.0  T
   9    -83.3622441 -0.165643E-04  0.762E-03    1.88       1.7  T
  10    -83.3622462 -0.211049E-05  0.361E-03    1.89       3.6  T
  11    -83.3622464 -0.242361E-06  0.162E-03    1.89       8.0  T
  12    -83.3622465 -0.108173E-06  0.415E-04    1.89      31.1  T
  13    -83.3622466 -0.415618E-08  0.242E-04    1.89      53.2  T

   *** convergence criteria satisfied after 13 iterations ***

         #    Occupation            Energy/Eh            Energy/eV
      -------------------------------------------------------------
         1        2.0000           -0.6874846             -18.7074
       ...           ...                  ...                  ...
        69        2.0000           -0.4013035             -10.9200
        70        2.0000           -0.3968517             -10.7989
        71        2.0000           -0.3963724             -10.7858
        72        2.0000           -0.3942885             -10.7291
        73        2.0000           -0.3916583             -10.6576
        74        2.0000           -0.3626447              -9.8681
        75        2.0000           -0.3324058              -9.0452 (HOMO)
        76                         -0.2631254              -7.1600 (LUMO)
        77                         -0.2189737              -5.9586
        78                         -0.1850585              -5.0357
        79                         -0.1424065              -3.8751
        80                         -0.0958125              -2.6072
       ...                                ...                  ...
       144                          0.6808515              18.5269
      -------------------------------------------------------------
                  HL-Gap            0.0692805 Eh            1.8852 eV
             Fermi-level           -0.2977656 Eh           -8.1026 eV

 SCC (total)                   0 d,  0 h,  0 min,  0.072 sec
 SCC setup                      ...        0 min,  0.000 sec (  0.361%)
 Dispersion                     ...        0 min,  0.000 sec (  0.677%)
 classical contributions        ...        0 min,  0.000 sec (  0.253%)
 integral evaluation            ...        0 min,  0.006 sec (  8.684%)
 iterations                     ...        0 min,  0.037 sec ( 51.015%)
 molecular gradient             ...        0 min,  0.028 sec ( 38.522%)
 printout                       ...        0 min,  0.000 sec (  0.478%)

         :::::::::::::::::::::::::::::::::::::::::::::::::::::
         ::                     SUMMARY                     ::
         :::::::::::::::::::::::::::::::::::::::::::::::::::::
         :: total energy             -82.112124670684 Eh    ::
         :: gradient norm              1.679727021598 Eh/a0 ::
         :: HOMO-LUMO gap              1.885217188925 eV    ::
         ::.................................................::
         :: SCC energy               -83.362246552387 Eh    ::
         :: -> isotropic ES            0.147731117357 Eh    ::
         :: -> anisotropic ES          0.012145443794 Eh    ::
         :: -> anisotropic XC          0.027456053602 Eh    ::
         :: -> dispersion             -0.062770022755 Eh    ::
         :: repulsion energy           1.075064188068 Eh    ::
         :: add. restraining           0.174346888606 Eh    ::
         :: total charge               0.000000000000 e     ::
         :::::::::::::::::::::::::::::::::::::::::::::::::::::

      ----------------------------------------------------------- 
     |                   =====================                   |
     |                        A N C O P T                        |
     |                   =====================                   |
     |               Approximate Normal Coordinate               |
     |                Rational Function Optimizer                |
      ----------------------------------------------------------- 

          ...................................................
          :                      SETUP                      :
          :.................................................:
          :   optimization level            normal          :
          :   max. optcycles                   200          :
          :   ANC micro-cycles                  20          :
          :   degrees of freedom               174          :
          :.................................................:
          :   RF solver                   davidson          :
          :   write xtbopt.log                true          :
          :   linear?                        false          :
          :   energy convergence         0.5000000E-05 Eh   :
          :   grad. convergence          0.1000000E-02 Eh/α :
          :   maximium RF displ.         1.0000000          :
          :   Hlow (freq-cutoff)         0.1000000E-01      :
          :   Hmax (freq-cutoff)         5.0000000          :
          :   S6 in model hess.         20.0000000          :
          ...................................................

generating ANC from model Hessian ...
Using Lindh-Hessian (1995)
 Shifting diagonal of input Hessian by   0.20202318018064355     
 Lowest  eigenvalues of input Hessian
    0.010000    0.149772    0.000000    0.000000    0.000000    0.000000
    0.000000    0.000000    0.202134    0.202164    0.202316    0.203641
    0.203915    0.204896    0.205313    0.205387    0.206521    0.207138
 Highest eigenvalues
    1.914007    2.089509    2.093502    2.168867    8.792092    8.855155


........................................................................
.............................. CYCLE    1 ..............................
........................................................................
   1    -83.3622466 -0.833622E+02  0.849E-05    1.89       0.0  T
   2    -83.3622466 -0.196607E-09  0.607E-05    1.89     212.8  T
   3    -83.3622466 -0.127699E-09  0.379E-05    1.89     340.9  T
     SCC iter.                  ...        0 min,  0.009 sec
     gradient                   ...        0 min,  0.028 sec
 * total energy  :   -82.1121247 Eh     change       -0.9941488E-09 Eh
   gradient norm :     1.6797289 Eh/α   predicted     0.0000000E+00 (-100.00%)
   displ. norm   :     0.3114322 α      lambda       -0.5163861E+00
   maximum displ.:     0.2916583 α      in ANC's #174, #173, #127, ...

........................................................................
.............................. CYCLE    2 ..............................
........................................................................
   1    -83.3575297 -0.833575E+02  0.304E-01    2.23       0.0  T
   2    -83.3571913  0.338413E-03  0.294E-01    2.21       1.0  T
   3    -83.3600469 -0.285563E-02  0.146E-01    2.22       1.0  T
   4    -83.3599035  0.143370E-03  0.604E-02    2.22       1.0  T
   5    -83.3601028 -0.199235E-03  0.190E-02    2.22       1.0  T
   6    -83.3601228 -0.200125E-04  0.576E-03    2.22       2.2  T
   7    -83.3601236 -0.803745E-06  0.335E-03    2.22       3.9  T
   8    -83.3601239 -0.344310E-06  0.912E-04    2.22      14.2  T
   9    -83.3601239 -0.117553E-07  0.346E-04    2.22      37.3  T
     SCC iter.                  ...        0 min,  0.025 sec
     gradient                   ...        0 min,  0.027 sec
 * total energy  :   -82.2433495 Eh     change       -0.1312248E+00 Eh
   gradient norm :     0.8390299 Eh/α   predicted    -0.2833722E+00 ( 115.94%)
   displ. norm   :     0.1058777 α      lambda       -0.8504863E-01
   maximum displ.:     0.0960606 α      in ANC's #174, #173, #37, ...

........................................................................
.............................. CYCLE    3 ..............................
........................................................................
   1    -83.3610948 -0.833611E+02  0.109E-01    2.09       0.0  T
   2    -83.3610511  0.436959E-04  0.102E-01    2.10       1.0  T
   3    -83.3614145 -0.363372E-03  0.517E-02    2.09       1.0  T
   4    -83.3613939  0.205478E-04  0.255E-02    2.09       1.0  T
   5    -83.3614287 -0.348425E-04  0.905E-03    2.09       1.4  T
   6    -83.3614337 -0.492721E-05  0.224E-03    2.09       5.8  T
   7    -83.3614338 -0.164623E-06  0.116E-03    2.09      11.2  T
   8    -83.3614339 -0.306268E-07  0.317E-04    2.09      40.8  T
   9    -83.3614339 -0.129003E-08  0.117E-04    2.09     110.0  T
     SCC iter.                  ...        0 min,  0.025 sec
     gradient                   ...        0 min,  0.028 sec
 * total energy  :   -82.2867966 Eh     change       -0.4344705E-01 Eh
   gradient norm :     0.0266748 Eh/α   predicted    -0.4300233E-01 (  -1.02%)
   displ. norm   :     0.0426465 α      lambda       -0.7776657E-03
   maximum displ.:     0.0182685 α      in ANC's #37, #36, #127, ...

........................................................................
.............................. CYCLE    4 ..............................
........................................................................
   1    -83.3609828 -0.833610E+02  0.279E-02    2.09       0.0  T
   2    -83.3609835 -0.708516E-06  0.173E-02    2.09       1.0  T
   3    -83.3609728  0.107511E-04  0.143E-02    2.09       1.0  T
   4    -83.3609861 -0.133547E-04  0.254E-03    2.09       5.1  T
   5    -83.3609864 -0.275800E-06  0.118E-03    2.09      11.0  T
   6    -83.3609865 -0.828606E-07  0.425E-04    2.09      30.4  T
   7    -83.3609865 -0.470925E-08  0.210E-04    2.09      61.6  T
     SCC iter.                  ...        0 min,  0.019 sec
     gradient                   ...        0 min,  0.028 sec
 * total energy  :   -82.2874666 Eh     change       -0.6700686E-03 Eh
   gradient norm :     0.0152237 Eh/α   predicted    -0.4088755E-03 ( -38.98%)
   displ. norm   :     0.1320171 α      lambda       -0.1376242E-02
   maximum displ.:     0.0603688 α      in ANC's #1, #37, #36, ...

........................................................................
.............................. CYCLE    5 ..............................
........................................................................
   1    -83.3597038 -0.833597E+02  0.810E-02    2.10       0.0  T
   2    -83.3597051 -0.123937E-05  0.485E-02    2.11       1.0  T
   3    -83.3596055  0.996134E-04  0.392E-02    2.10       1.0  T
   4    -83.3597151 -0.109621E-03  0.630E-03    2.10       2.1  T
   5    -83.3597170 -0.190193E-05  0.265E-03    2.10       4.9  T
   6    -83.3597174 -0.415720E-06  0.955E-04    2.10      13.5  T
   7    -83.3597174 -0.154778E-07  0.467E-04    2.10      27.6  T
     SCC iter.                  ...        0 min,  0.019 sec
     gradient                   ...        0 min,  0.028 sec
 * total energy  :   -82.2880981 Eh     change       -0.6314463E-03 Eh
   gradient norm :     0.0152234 Eh/α   predicted    -0.7001957E-03 (  10.89%)
   displ. norm   :     0.3602569 α      lambda       -0.2100660E-02
   maximum displ.:     0.3068053 α      in ANC's #1, #37, #36, ...

........................................................................
.............................. CYCLE    6 ..............................
........................................................................
   1    -83.3529202 -0.833529E+02  0.211E-01    2.08       0.0  T
   2    -83.3529317 -0.114872E-04  0.125E-01    2.08       1.0  T
   3    -83.3528873  0.444155E-04  0.243E-02    2.08       1.0  T
   4    -83.3529343 -0.469588E-04  0.741E-03    2.08       1.7  T
   5    -83.3529371 -0.288634E-05  0.242E-03    2.08       5.3  T
   6    -83.3529370  0.889875E-07  0.167E-03    2.08       7.7  T
   7    -83.3529372 -0.124277E-06  0.689E-04    2.08      18.7  T
   8    -83.3529372 -0.216264E-07  0.240E-04    2.08      53.8  T
     SCC iter.                  ...        0 min,  0.022 sec
     gradient                   ...        0 min,  0.028 sec
 * total energy  :   -82.2848988 Eh     change        0.3199315E-02 Eh
   gradient norm :     0.0637258 Eh/α   predicted    -0.1186796E-02 (-137.10%)
   displ. norm   :     0.2505378 α      lambda       -0.7170268E-02
   maximum displ.:     0.2256989 α      in ANC's #1, #37, #36, ...

........................................................................
.............................. CYCLE    7 ..............................
........................................................................
   1    -83.3605646 -0.833606E+02  0.150E-01    2.10       0.0  T
   2    -83.3605705 -0.588178E-05  0.896E-02    2.10       1.0  T
   3    -83.3605007  0.698104E-04  0.328E-02    2.10       1.0  T
   4    -83.3605730 -0.722760E-04  0.701E-03    2.10       1.8  T
   5    -83.3605753 -0.234161E-05  0.251E-03    2.10       5.1  T
   6    -83.3605755 -0.133430E-06  0.162E-03    2.10       8.0  T
   7    -83.3605756 -0.945534E-07  0.395E-04    2.10      32.7  T
   8    -83.3605756 -0.479909E-08  0.131E-04    2.10      98.7  T
     SCC iter.                  ...        0 min,  0.022 sec
     gradient                   ...        0 min,  0.028 sec
 * total energy  :   -82.2885472 Eh     change       -0.3648489E-02 Eh
   gradient norm :     0.0231417 Eh/α   predicted    -0.3810555E-02 (   4.44%)
   displ. norm   :     0.0325690 α      lambda       -0.2879257E-03
   maximum displ.:     0.0223930 α      in ANC's #1, #37, #36, ...

........................................................................
.............................. CYCLE    8 ..............................
........................................................................
   1    -83.3612413 -0.833612E+02  0.190E-02    2.09       0.0  T
   2    -83.3612415 -0.193552E-06  0.117E-02    2.09       1.1  T
   3    -83.3612371  0.442257E-05  0.835E-03    2.09       1.5  T
   4    -83.3612420 -0.497612E-05  0.111E-03    2.09      11.6  T
   5    -83.3612421 -0.483513E-07  0.518E-04    2.09      24.9  T
   6    -83.3612421 -0.118138E-07  0.245E-04    2.09      52.8  T
     SCC iter.                  ...        0 min,  0.016 sec
     gradient                   ...        0 min,  0.028 sec
 * total energy  :   -82.2887386 Eh     change       -0.1914056E-03 Eh
   gradient norm :     0.0152888 Eh/α   predicted    -0.1441053E-03 ( -24.71%)
   displ. norm   :     0.0745423 α      lambda       -0.3451267E-03
   maximum displ.:     0.0361396 α      in ANC's #37, #36, #33, ...

........................................................................
.............................. CYCLE    9 ..............................
........................................................................
   1    -83.3622236 -0.833622E+02  0.371E-02    2.09       0.0  T
   2    -83.3622239 -0.345512E-06  0.220E-02    2.09       1.0  T
   3    -83.3622149  0.902022E-05  0.122E-02    2.09       1.1  T
   4    -83.3622243 -0.939783E-05  0.172E-03    2.09       7.5  T
   5    -83.3622245 -0.169898E-06  0.585E-04    2.09      22.1  T
   6    -83.3622245 -0.118792E-07  0.369E-04    2.09      35.0  T
     SCC iter.                  ...        0 min,  0.016 sec
     gradient                   ...        0 min,  0.028 sec
 * total energy  :   -82.2889984 Eh     change       -0.2597509E-03 Eh
   gradient norm :     0.0111785 Eh/α   predicted    -0.1735162E-03 ( -33.20%)
   displ. norm   :     0.1285365 α      lambda       -0.3631047E-03
   maximum displ.:     0.0631358 α      in ANC's #37, #36, #33, ...

........................................................................
.............................. CYCLE   10 ..............................
........................................................................
   1    -83.3631546 -0.833632E+02  0.624E-02    2.07       0.0  T
   2    -83.3631546  0.177362E-07  0.367E-02    2.07       1.0  T
   3    -83.3631257  0.288108E-04  0.217E-02    2.07       1.0  T
   4    -83.3631560 -0.302525E-04  0.176E-03    2.07       7.4  T
   5    -83.3631561 -0.129489E-06  0.907E-04    2.07      14.2  T
   6    -83.3631562 -0.245158E-07  0.450E-04    2.07      28.7  T
     SCC iter.                  ...        0 min,  0.016 sec
     gradient                   ...        0 min,  0.028 sec
 * total energy  :   -82.2892218 Eh     change       -0.2233870E-03 Eh
   gradient norm :     0.0068349 Eh/α   predicted    -0.1845147E-03 ( -17.40%)
   displ. norm   :     0.0478584 α      lambda       -0.7701159E-04
   maximum displ.:     0.0194942 α      in ANC's #37, #36, #17, ...

........................................................................
.............................. CYCLE   11 ..............................
........................................................................
   1    -83.3637284 -0.833637E+02  0.223E-02    2.07       0.0  T
   2    -83.3637284 -0.428965E-07  0.132E-02    2.07       1.0  T
   3    -83.3637260  0.244502E-05  0.618E-03    2.07       2.1  T
   4    -83.3637286 -0.255926E-05  0.808E-04    2.07      16.0  T
   5    -83.3637286 -0.284067E-07  0.440E-04    2.07      29.3  T
   6    -83.3637286 -0.997130E-08  0.162E-04    2.07      79.6  T
     SCC iter.                  ...        0 min,  0.016 sec
     gradient                   ...        0 min,  0.028 sec
 * total energy  :   -82.2892782 Eh     change       -0.5643869E-04 Eh
   gradient norm :     0.0041480 Eh/α   predicted    -0.3862840E-04 ( -31.56%)
   displ. norm   :     0.0458204 α      lambda       -0.7042672E-04
   maximum displ.:     0.0186148 α      in ANC's #17, #28, #33, ...

........................................................................
.............................. CYCLE   12 ..............................
........................................................................
   1    -83.3645588 -0.833646E+02  0.197E-02    2.06       0.0  T
   2    -83.3645589 -0.751674E-07  0.118E-02    2.06       1.1  T
   3    -83.3645567  0.212882E-05  0.562E-03    2.06       2.3  T
   4    -83.3645590 -0.227001E-05  0.673E-04    2.06      19.2  T
   5    -83.3645590 -0.991815E-08  0.456E-04    2.06      28.3  T
   6    -83.3645590 -0.115437E-07  0.197E-04    2.06      65.4  T
     SCC iter.                  ...        0 min,  0.016 sec
     gradient                   ...        0 min,  0.028 sec
 * total energy  :   -82.2893280 Eh     change       -0.4972906E-04 Eh
   gradient norm :     0.0030634 Eh/α   predicted    -0.3530019E-04 ( -29.01%)
   displ. norm   :     0.0377009 α      lambda       -0.5040911E-04
   maximum displ.:     0.0170165 α      in ANC's #17, #28, #14, ...

........................................................................
.............................. CYCLE   13 ..............................
........................................................................
   1    -83.3653029 -0.833653E+02  0.146E-02    2.06       0.0  T
   2    -83.3653030 -0.513014E-07  0.881E-03    2.06       1.5  T
   3    -83.3653016  0.136672E-05  0.454E-03    2.05       2.8  T
   4    -83.3653031 -0.147379E-05  0.393E-04    2.06      32.8  T
   5    -83.3653031 -0.453798E-08  0.193E-04    2.06      66.9  T
   6    -83.3653031 -0.165301E-09  0.145E-04    2.06      88.9  T
     SCC iter.                  ...        0 min,  0.016 sec
     gradient                   ...        0 min,  0.028 sec
 * total energy  :   -82.2893645 Eh     change       -0.3659224E-04 Eh
   gradient norm :     0.0032587 Eh/α   predicted    -0.2528021E-04 ( -30.91%)
   displ. norm   :     0.0371286 α      lambda       -0.4318479E-04
   maximum displ.:     0.0168340 α      in ANC's #17, #28, #14, ...

........................................................................
.............................. CYCLE   14 ..............................
........................................................................
   1    -83.3657651 -0.833658E+02  0.135E-02    2.05       0.0  T
   2    -83.3657651 -0.455810E-07  0.815E-03    2.05       1.6  T
   3    -83.3657642  0.949471E-06  0.380E-03    2.05       3.4  T
   4    -83.3657652 -0.102078E-05  0.423E-04    2.05      30.5  T
   5    -83.3657652 -0.696670E-08  0.208E-04    2.05      62.0  T
   6    -83.3657652 -0.923507E-09  0.121E-04    2.05     107.1  T
     SCC iter.                  ...        0 min,  0.016 sec
     gradient                   ...        0 min,  0.028 sec
 * total energy  :   -82.2893949 Eh     change       -0.3036547E-04 Eh
   gradient norm :     0.0030341 Eh/α   predicted    -0.2162581E-04 ( -28.78%)
   displ. norm   :     0.0296008 α      lambda       -0.2914562E-04
   maximum displ.:     0.0127119 α      in ANC's #17, #37, #14, ...

........................................................................
.............................. CYCLE   15 ..............................
........................................................................
   1    -83.3657214 -0.833657E+02  0.110E-02    2.05       0.0  T
   2    -83.3657214 -0.415899E-07  0.657E-03    2.05       2.0  T
   3    -83.3657210  0.439638E-06  0.255E-03    2.05       5.1  T
   4    -83.3657214 -0.446384E-06  0.726E-04    2.05      17.8  T
   5    -83.3657214 -0.297659E-07  0.267E-04    2.05      48.4  T
     SCC iter.                  ...        0 min,  0.014 sec
     gradient                   ...        0 min,  0.028 sec
 * total energy  :   -82.2894154 Eh     change       -0.2046332E-04 Eh
   gradient norm :     0.0021576 Eh/α   predicted    -0.1461239E-04 ( -28.59%)
   displ. norm   :     0.0226327 α      lambda       -0.1949958E-04
   maximum displ.:     0.0092609 α      in ANC's #17, #37, #36, ...

........................................................................
.............................. CYCLE   16 ..............................
........................................................................
   1    -83.3653523 -0.833654E+02  0.900E-03    2.05       0.0  T
   2    -83.3653523 -0.102692E-07  0.545E-03    2.05       2.4  T
   3    -83.3653514  0.916221E-06  0.383E-03    2.05       3.4  T
   4    -83.3653523 -0.955457E-06  0.706E-04    2.05      18.3  T
   5    -83.3653524 -0.260213E-07  0.195E-04    2.05      66.2  T
     SCC iter.                  ...        0 min,  0.014 sec
     gradient                   ...        0 min,  0.028 sec
 * total energy  :   -82.2894293 Eh     change       -0.1388284E-04 Eh
   gradient norm :     0.0015848 Eh/α   predicted    -0.9757996E-05 ( -29.71%)
   displ. norm   :     0.0304405 α      lambda       -0.1516806E-04
   maximum displ.:     0.0128587 α      in ANC's #17, #29, #36, ...

........................................................................
.............................. CYCLE   17 ..............................
........................................................................
   1    -83.3646663 -0.833647E+02  0.128E-02    2.06       0.0  T
   2    -83.3646663  0.368634E-07  0.788E-03    2.06       1.6  T
   3    -83.3646637  0.259905E-05  0.659E-03    2.06       2.0  T
   4    -83.3646665 -0.275674E-05  0.834E-04    2.06      15.5  T
   5    -83.3646665 -0.355284E-07  0.288E-04    2.06      44.9  T
   6    -83.3646665 -0.263111E-08  0.138E-04    2.06      93.4  T
     SCC iter.                  ...        0 min,  0.016 sec
     gradient                   ...        0 min,  0.028 sec
 * total energy  :   -82.2894427 Eh     change       -0.1344806E-04 Eh
   gradient norm :     0.0021114 Eh/α   predicted    -0.7629695E-05 ( -43.27%)
   displ. norm   :     0.0106009 α      lambda       -0.8665746E-05
   maximum displ.:     0.0040213 α      in ANC's #17, #29, #6, ...

........................................................................
.............................. CYCLE   18 ..............................
........................................................................
   1    -83.3645797 -0.833646E+02  0.490E-03    2.06       0.0  T
   2    -83.3645797 -0.245888E-08  0.294E-03    2.06       4.4  T
   3    -83.3645796  0.836553E-07  0.122E-03    2.06      10.6  T
   4    -83.3645797 -0.869070E-07  0.183E-04    2.06      70.7  T
   5    -83.3645797 -0.149657E-08  0.819E-05    2.06     157.6  T
     SCC iter.                  ...        0 min,  0.014 sec
     gradient                   ...        0 min,  0.028 sec
 * total energy  :   -82.2894501 Eh     change       -0.7365665E-05 Eh
   gradient norm :     0.0016531 Eh/α   predicted    -0.4337124E-05 ( -41.12%)
   displ. norm   :     0.0474009 α      lambda       -0.1858555E-04
   maximum displ.:     0.0199890 α      in ANC's #17, #29, #6, ...

........................................................................
.............................. CYCLE   19 ..............................
........................................................................
   1    -83.3645728 -0.833646E+02  0.194E-02    2.06       0.0  T
   2    -83.3645729 -0.769540E-07  0.116E-02    2.06       1.1  T
   3    -83.3645725  0.379958E-06  0.256E-03    2.06       5.0  T
   4    -83.3645730 -0.412111E-06  0.486E-04    2.06      26.6  T
   5    -83.3645730 -0.692347E-08  0.309E-04    2.06      41.8  T
     SCC iter.                  ...        0 min,  0.015 sec
     gradient                   ...        0 min,  0.028 sec
 * total energy  :   -82.2894609 Eh     change       -0.1083288E-04 Eh
   gradient norm :     0.0013967 Eh/α   predicted    -0.9308454E-05 ( -14.07%)
   displ. norm   :     0.0060900 α      lambda       -0.3734073E-05
   maximum displ.:     0.0026657 α      in ANC's #63, #1, #66, ...

........................................................................
.............................. CYCLE   20 ..............................
........................................................................
   1    -83.3648213 -0.833648E+02  0.380E-03    2.06       0.0  T
   2    -83.3648213  0.494660E-08  0.237E-03    2.06       5.4  T
   3    -83.3648211  0.244169E-06  0.209E-03    2.06       6.2  T
   4    -83.3648214 -0.262528E-06  0.248E-04    2.06      52.1  T
   5    -83.3648214 -0.340124E-08  0.931E-05    2.06     138.6  T
     SCC iter.                  ...        0 min,  0.014 sec
     gradient                   ...        0 min,  0.028 sec
 * total energy  :   -82.2894653 Eh     change       -0.4369394E-05 Eh
   gradient norm :     0.0007761 Eh/α   predicted    -0.1872456E-05 ( -57.15%)
   displ. norm   :     0.0142970 α      lambda       -0.5322212E-05
   maximum displ.:     0.0054033 α      in ANC's #28, #6, #1, ...

   *** GEOMETRY OPTIMIZATION CONVERGED AFTER 20 ITERATIONS ***

------------------------------------------------------------------------
 total energy gain   :        -0.1773406 Eh     -111.2829 kcal/mol
 total RMSD          :         0.0872581 a0        0.0462 Å
 total power (kW/mol):       -23.2803845 (step) -430.7689 (real)
------------------------------------------------------------------------

 ANCopt (total)                0 d,  0 h,  0 min,  1.081 sec
 optimizer setup                ...        0 min,  0.000 sec (  0.008%)
 model hessian                  ...        0 min,  0.032 sec (  2.962%)
 ANC generation                 ...        0 min,  0.003 sec (  0.250%)
 coordinate transformation      ...        0 min,  0.000 sec (  0.030%)
 single point calculation       ...        0 min,  1.039 sec ( 96.092%)
 optimization log               ...        0 min,  0.004 sec (  0.377%)
 hessian update                 ...        0 min,  0.000 sec (  0.044%)
 rational function              ...        0 min,  0.002 sec (  0.160%)

================
 final structure:
================
60
 xtb: 6.5.0 (homebrew)
C            3.58937501690826      -37.63233695033051       15.86878290508136
C            3.76373752553428      -38.12176586249057       17.30484569575257
O            3.28083189826992      -37.12770770066871       18.20748689149487
C            2.90324753927693      -39.37449480165079       17.51481947208259
C            5.25497387878983      -38.32254697595361       17.76006972816802
C            5.73792479356838      -39.77131561124915       17.76540862354608
C            6.24343319324535      -37.46541733851516       16.95889672205239
O            5.25850381856391      -37.81491062313035       19.09340857384445
B            4.13766777410852      -37.04929601893640       19.27641713473379
C            3.85736511360276      -36.23138474051481       20.55785214871532
C            4.87902329235613      -36.08104787575147       21.53158508577787
C            4.89807171916476      -35.30337365867553       22.63428893312041
H            5.79970297955151      -35.27800212184315       23.22959635772750
C            3.82833453910577      -34.30255032764443       23.02068790338487
H            4.07023713108916      -33.88878406524613       24.00181507389295
C            2.45317887768375      -34.91934130686442       23.11454349049857
B            1.72282161047193      -34.89856270540781       24.49315315305183
O            2.25135783029808      -34.35804399545133       25.63288842913907
C            1.39799160756943      -34.67716125134653       26.73114465120734
C            1.28016865931681      -33.46777479223670       27.65580651938609
C            2.06571895170438      -35.82965457647282       27.49235757546781
C            0.05973935307089      -35.10689223442692       26.02751960142162
C           -0.94717669321567      -33.95609794855856       25.90436420695562
C           -0.63720425863711      -36.31407364674730       26.65111976874737
O            0.48163099975073      -35.43198285714163       24.70361272140330
C            1.88237795524692      -35.50704006471576       22.06169604869619
C            2.46399070123114      -35.63057475584766       20.70450538396475
H            1.77291274749801      -36.13992521781362       20.03431630303155
C            3.04396627479305      -34.42189958117255       20.03604900101970
C            3.66364154635295      -33.33269337144215       20.67200086223046
C            3.95965541274873      -33.20616915507468       21.98659898995561
H            4.47094960746298      -32.31169547520310       22.31280792038772
H            2.52729657750908      -37.54812310125943       15.65172945168864
H            4.03520006234234      -38.33948072384661       15.17463078868405
H            4.03943212724105      -36.65470469562118       15.72927269476587
H            1.86212194373498      -39.11225762486234       17.34048773575311
H            2.99427363930787      -39.72597155795949       18.53950343718627
H            3.18755719090493      -40.16578208372047       16.82756578278152
H            5.66454590796355      -40.19748718346460       16.76840991665065
H            5.16278860339265      -40.37397851502973       18.46075052648727
H            6.77782007213544      -39.79384541509350       18.08172403545661
H            6.32906137636808      -37.81490220983975       15.93450597344775
H            7.21807598215259      -37.52691994510504       17.43767945002091
H            5.93098844691369      -36.42405461486575       16.96923614644782
H            5.76104856417400      -36.67469201611021       21.31786748970693
H            2.25237628141366      -33.26628489516974       28.09881254188502
H            0.56739680648027      -33.67127889204511       28.45048205040001
H            0.97013106999634      -32.58357014508192       27.10844725099468
H            3.05809849618156      -35.51041371072180       27.80248253954795
H            2.17937155477532      -36.69260190496324       26.84099070950064
H            1.49174595662709      -36.10470098275964       28.37216211936805
H           -1.34596267606856      -33.67687385129371       26.87499814569234
H           -1.76483425088155      -34.28179719778461       25.26548429621369
H           -0.47860909169211      -33.09459540874840       25.43533250404689
H           -0.88216438629170      -36.11176154249475       27.69030802457145
H           -0.01487232983616      -37.20084444069654       26.59027674989935
H           -1.55630515227328      -36.51004077856362       26.10459671267787
H            0.90406956372829      -35.94947356874317       22.19455322171581
H            2.97600681563910      -34.41680774917692       18.96008561488191
H            3.92899945157922      -32.50920763645436       20.01699821358725

 Bond Distances (Angstroems)
 ---------------------------
C1-C2=1.5272         C1-H33=1.0873        C1-H34=1.0866        C1-H35=1.0853        C2-C1=1.5272         C2-O3=1.4269         
C2-C4=1.5342         C2-C5=1.5720         O3-C2=1.4269         O3-B9=1.3722         C4-C2=1.5342         C4-H36=1.0877        
C4-H37=1.0871        C4-H38=1.0859        C5-C2=1.5720         C5-C6=1.5272         C5-C7=1.5341         C5-O8=1.4267         
C6-C5=1.5272         C6-H39=1.0867        C6-H40=1.0851        C6-H41=1.0872        C7-C5=1.5341         C7-H42=1.0857        
C7-H43=1.0876        C7-H44=1.0873        O8-C5=1.4267         O8-B9=1.3696         B9-O3=1.3722         B9-O8=1.3696         
B9-C10=1.5458        C10-B9=1.5458        C10-C11=1.4193       C10-C27=1.5245       C11-C10=1.4193       C11-C12=1.3495       
C11-H45=1.0845       C12-C11=1.3495       C12-H13=1.0807       C12-C14=1.5150       H13-C12=1.0807       C14-C12=1.5150       
C14-H15=1.0919       C14-C16=1.5101       C14-C31=1.5128       H15-C14=1.0919       C16-C14=1.5101       C16-B17=1.5603       
C16-C26=1.3341       B17-C16=1.5603       B17-O18=1.3677       B17-O25=1.3673       O18-B17=1.3677       O18-C19=1.4270       
C19-O18=1.4270       C19-C20=1.5269       C19-C21=1.5341       C19-C22=1.5718       C20-C19=1.5269       C20-H46=1.0872       
C20-H47=1.0867       C20-H48=1.0851       C21-C19=1.5341       C21-H49=1.0876       C21-H50=1.0871       C21-H51=1.0859       
C22-C19=1.5718       C22-C23=1.5341       C22-C24=1.5271       C22-O25=1.4270       C23-C22=1.5341       C23-H52=1.0859       
C23-H53=1.0876       C23-H54=1.0871       C24-C22=1.5271       C24-H55=1.0867       C24-H56=1.0851       C24-H57=1.0871       
O25-B17=1.3673       O25-C22=1.4270       C26-C16=1.3341       C26-C27=1.4817       C26-H58=1.0819       C27-C10=1.5245       
C27-C26=1.4817       C27-H28=1.0891       C27-C29=1.4980       H28-C27=1.0891       C29-C27=1.4980       C29-C30=1.4053       
C29-H59=1.0781       C30-C29=1.4053       C30-C31=1.3534       C30-H60=1.0852       C31-C14=1.5128       C31-C30=1.3534       
C31-H32=1.0807       H32-C31=1.0807       H33-C1=1.0873        H34-C1=1.0866        H35-C1=1.0853        H36-C4=1.0877        
H37-C4=1.0871        H38-C4=1.0859        H39-C6=1.0867        H40-C6=1.0851        H41-C6=1.0872        H42-C7=1.0857        
H43-C7=1.0876        H44-C7=1.0873        H45-C11=1.0845       H46-C20=1.0872       H47-C20=1.0867       H48-C20=1.0851       
H49-C21=1.0876       H50-C21=1.0871       H51-C21=1.0859       H52-C23=1.0859       H53-C23=1.0876       H54-C23=1.0871       
H55-C24=1.0867       H56-C24=1.0851       H57-C24=1.0871       H58-C26=1.0819       H59-C29=1.0781       H60-C30=1.0852       
 C  H  Rav=1.0860 sigma=0.0026  Rmin=1.0781  Rmax=1.0919    32
 C  B  Rav=1.5531 sigma=0.0072  Rmin=1.5458  Rmax=1.5603     2
 C  C  Rav=1.4901 sigma=0.0705  Rmin=1.3341  Rmax=1.5720    21
 O  B  Rav=1.3692 sigma=0.0020  Rmin=1.3673  Rmax=1.3722     4
 O  C  Rav=1.4269 sigma=0.0001  Rmin=1.4267  Rmax=1.4270     4

 selected bond angles (degree)
 --------------------
H33-C1-C2=108.91               H34-C1-C2=110.20               H34-C1-H33=108.88              H35-C1-C2=111.24               
H35-C1-H33=108.04              H35-C1-H34=109.51              O3-C2-C1=109.45                C4-C2-C1=109.05                
C4-C2-O3=107.00                C5-C2-C1=114.93                C5-C2-O3=103.11                C5-C2-C4=112.84                
B9-O3-C2=108.74                H36-C4-C2=108.55               H37-C4-C2=110.24               H37-C4-H36=108.01              
H38-C4-C2=111.19               H38-C4-H36=108.96              H38-C4-H37=109.82              C6-C5-C2=114.97                
C7-C5-C2=112.87                C7-C5-C6=109.15                O8-C5-C2=103.15                O8-C5-C6=109.48                
O8-C5-C7=106.72                H39-C6-C5=110.33               H40-C6-C5=111.19               H40-C6-H39=109.53              
H41-C6-C5=108.85               H41-C6-H39=108.87              H41-C6-H40=108.00              H42-C7-C5=111.33               
H43-C7-C5=108.41               H43-C7-H42=109.05              H44-C7-C5=110.18               H44-C7-H42=109.87              
H44-C7-H43=107.91              B9-O8-C5=108.77                O8-B9-O3=112.02                C10-B9-O3=124.25               
C10-B9-O8=123.70               C11-C10-B9=119.62              C27-C10-B9=117.00              C27-C10-C11=123.38             

 selected dihedral angles (degree)
 ---------------------------------
O3-C2-C1-H33=294.23           O3-C2-C1-H34=174.85           O3-C2-C1-H35= 53.20           C4-C2-C1-H33= 50.98           
C4-C2-C1-H34=291.60           C4-C2-C1-H35=169.94           C5-C2-C1-H33=178.80           C5-C2-C1-H34= 59.42           
C5-C2-C1-H35=297.77           B9-O3-C2-C1=220.55            B9-O3-C2-C4=102.52            B9-O3-C2-C5=343.31            
H36-C4-C2-C1=299.48           H36-C4-C2-O3= 57.77           H36-C4-C2-C5=170.49           H37-C4-C2-C1=181.36           
H37-C4-C2-O3=299.65           H37-C4-C2-C5= 52.37           H38-C4-C2-C1= 59.32           H38-C4-C2-O3=177.61           
H38-C4-C2-C5=290.32           C6-C5-C2-C1=258.39            C6-C5-C2-O3=139.36            C6-C5-C2-C4= 24.28            
C7-C5-C2-C1= 24.49            C7-C5-C2-O3=265.46            C7-C5-C2-C4=150.38            O8-C5-C2-C1=139.27            
O8-C5-C2-O3= 20.24            O8-C5-C2-C4=265.16            H39-C6-C5-C2= 59.90           H39-C6-C5-C7=291.91           
H39-C6-C5-O8=175.43           H40-C6-C5-C2=298.16           H40-C6-C5-C7=170.17           H40-C6-C5-O8= 53.69           
H41-C6-C5-C2=179.30           H41-C6-C5-C7= 51.31           H41-C6-C5-O8=294.83           H42-C7-C5-C2=290.36           
H42-C7-C5-C6= 59.52           H42-C7-C5-O8=177.75           H43-C7-C5-C2=170.40           H43-C7-C5-C6=299.56           
H43-C7-C5-O8= 57.79           H44-C7-C5-C2= 52.52           H44-C7-C5-C6=181.68           H44-C7-C5-O8=299.91           
B9-O8-C5-C2=343.10            B9-O8-C5-C6=220.25            B9-O8-C5-C7=102.24            O8-B9-O3-C2=  7.00            
C10-B9-O3-C2=188.82           O3-B9-O8-C5=  7.35            C10-B9-O8-C5=185.55           C11-C10-B9-O3=187.89          
C11-C10-B9-O8=  9.91          C27-C10-B9-O3=  8.32          C27-C10-B9-O8=190.34          
           -------------------------------------------------
          |                Final Singlepoint                |
           -------------------------------------------------

          ...................................................
          :                      SETUP                      :
          :.................................................:
          :  # basis functions                 144          :
          :  # atomic orbitals                 144          :
          :  # shells                           88          :
          :  # electrons                       150          :
          :  max. iterations                   250          :
          :  Hamiltonian                  GFN2-xTB          :
          :  restarted?                      false          :
          :  GBSA solvation                  false          :
          :  PC potential                    false          :
          :  electronic temp.          300.0000000     K    :
          :  accuracy                    1.0000000          :
          :  -> integral cutoff          0.2500000E+02      :
          :  -> integral neglect         0.1000000E-07      :
          :  -> SCF convergence          0.1000000E-05 Eh   :
          :  -> wf. convergence          0.1000000E-03 e    :
          :  Broyden damping             0.4000000          :
          ...................................................

 iter      E             dE          RMSdq      gap      omega  full diag
   1    -83.3648214 -0.833648E+02  0.398E-05    2.06       0.0  T
   2    -83.3648214  0.918021E-11  0.307E-05    2.06     420.5  T
   3    -83.3648214 -0.342339E-10  0.188E-05    2.06     687.9  T

   *** convergence criteria satisfied after 3 iterations ***

         #    Occupation            Energy/Eh            Energy/eV
      -------------------------------------------------------------
         1        2.0000           -0.6884391             -18.7334
       ...           ...                  ...                  ...
        69        2.0000           -0.4013675             -10.9218
        70        2.0000           -0.3976685             -10.8211
        71        2.0000           -0.3963872             -10.7862
        72        2.0000           -0.3940235             -10.7219
        73        2.0000           -0.3920410             -10.6680
        74        2.0000           -0.3629521              -9.8764
        75        2.0000           -0.3318521              -9.0302 (HOMO)
        76                         -0.2562787              -6.9737 (LUMO)
        77                         -0.2189757              -5.9586
        78                         -0.1828262              -4.9750
        79                         -0.1440343              -3.9194
        80                         -0.0954062              -2.5961
       ...                                ...                  ...
       144                          0.6773156              18.4307
      -------------------------------------------------------------
                  HL-Gap            0.0755734 Eh            2.0565 eV
             Fermi-level           -0.2940654 Eh           -8.0019 eV

 SCC (total)                   0 d,  0 h,  0 min,  0.043 sec
 SCC setup                      ...        0 min,  0.000 sec (  0.522%)
 Dispersion                     ...        0 min,  0.000 sec (  0.901%)
 classical contributions        ...        0 min,  0.000 sec (  0.401%)
 integral evaluation            ...        0 min,  0.006 sec ( 13.847%)
 iterations                     ...        0 min,  0.008 sec ( 19.298%)
 molecular gradient             ...        0 min,  0.028 sec ( 64.184%)
 printout                       ...        0 min,  0.000 sec (  0.833%)

         :::::::::::::::::::::::::::::::::::::::::::::::::::::
         ::                     SUMMARY                     ::
         :::::::::::::::::::::::::::::::::::::::::::::::::::::
         :: total energy             -82.289465274169 Eh    ::
         :: gradient norm              0.000776097280 Eh/a0 ::
         :: HOMO-LUMO gap              2.056456696863 eV    ::
         ::.................................................::
         :: SCC energy               -83.364821362772 Eh    ::
         :: -> isotropic ES            0.148024948646 Eh    ::
         :: -> anisotropic ES          0.012000597992 Eh    ::
         :: -> anisotropic XC          0.027388535409 Eh    ::
         :: -> dispersion             -0.062658262022 Eh    ::
         :: repulsion energy           1.074504371163 Eh    ::
         :: add. restraining           0.000149923895 Eh    ::
         :: total charge              -0.000000000000 e     ::
         :::::::::::::::::::::::::::::::::::::::::::::::::::::

           -------------------------------------------------
          |                Property Printout                |
           -------------------------------------------------

    * Orbital Energies and Occupations

         #    Occupation            Energy/Eh            Energy/eV
      -------------------------------------------------------------
         1        2.0000           -0.6884391             -18.7334
       ...           ...                  ...                  ...
        63        2.0000           -0.4347261             -11.8295
        64        2.0000           -0.4320911             -11.7578
        65        2.0000           -0.4225471             -11.4981
        66        2.0000           -0.4213956             -11.4668
        67        2.0000           -0.4181291             -11.3779
        68        2.0000           -0.4162841             -11.3277
        69        2.0000           -0.4013675             -10.9218
        70        2.0000           -0.3976685             -10.8211
        71        2.0000           -0.3963872             -10.7862
        72        2.0000           -0.3940235             -10.7219
        73        2.0000           -0.3920410             -10.6680
        74        2.0000           -0.3629521              -9.8764
        75        2.0000           -0.3318521              -9.0302 (HOMO)
        76                         -0.2562787              -6.9737 (LUMO)
        77                         -0.2189757              -5.9586
        78                         -0.1828262              -4.9750
        79                         -0.1440343              -3.9194
        80                         -0.0954062              -2.5961
        81                         -0.0817672              -2.2250
        82                          0.0098434               0.2679
        83                          0.0106962               0.2911
        84                          0.0281003               0.7646
        85                          0.0297559               0.8097
        86                          0.0569519               1.5497
       ...                                ...                  ...
       144                          0.6773156              18.4307
      -------------------------------------------------------------
                  HL-Gap            0.0755734 Eh            2.0565 eV
             Fermi-level           -0.2940654 Eh           -8.0019 eV

     #   Z          covCN         q      C6AA      α(0)
     1   6 C        3.755    -0.117    22.787     6.807
     2   6 C        3.857     0.130    18.439     6.107
     3   8 O        1.638    -0.380    20.470     6.107
     4   6 C        3.755    -0.116    22.774     6.805
     5   6 C        3.859     0.130    18.442     6.107
     6   6 C        3.755    -0.117    22.801     6.809
     7   6 C        3.755    -0.115    22.761     6.803
     8   8 O        1.638    -0.375    20.377     6.093
     9   5 B        2.656     0.432    15.572     6.646
    10   6 C        3.247    -0.073    28.752     8.684
    11   6 C        2.890    -0.039    28.971     8.825
    12   6 C        2.908    -0.038    28.937     8.821
    13   1 H        0.926     0.026     2.646     2.544
    14   6 C        3.862    -0.016    20.820     6.489
    15   1 H        0.924     0.045     2.385     2.415
    16   6 C        2.866    -0.080    30.005     8.979
    17   5 B        2.661     0.431    15.560     6.640
    18   8 O        1.638    -0.370    20.279     6.079
    19   6 C        3.860     0.129    18.457     6.110
    20   6 C        3.755    -0.117    22.797     6.808
    21   6 C        3.755    -0.116    22.777     6.805
    22   6 C        3.860     0.129    18.455     6.109
    23   6 C        3.755    -0.116    22.783     6.806
    24   6 C        3.755    -0.117    22.805     6.809
    25   8 O        1.638    -0.371    20.309     6.083
    26   6 C        2.896    -0.028    28.705     8.784
    27   6 C        3.860    -0.005    20.622     6.458
    28   1 H        0.925     0.047     2.359     2.402
    29   6 C        3.275    -0.018    27.057     8.379
    30   6 C        2.888    -0.037    28.918     8.816
    31   6 C        2.910    -0.032    28.809     8.801
    32   1 H        0.926     0.028     2.620     2.531
    33   1 H        0.925     0.054     2.273     2.358
    34   1 H        0.925     0.039     2.458     2.452
    35   1 H        0.925     0.051     2.310     2.377
    36   1 H        0.925     0.052     2.301     2.372
    37   1 H        0.925     0.044     2.402     2.424
    38   1 H        0.925     0.042     2.420     2.433
    39   1 H        0.925     0.039     2.456     2.451
    40   1 H        0.925     0.052     2.294     2.369
    41   1 H        0.925     0.054     2.268     2.355
    42   1 H        0.925     0.042     2.420     2.433
    43   1 H        0.925     0.052     2.297     2.370
    44   1 H        0.925     0.042     2.418     2.432
    45   1 H        0.925     0.035     2.516     2.480
    46   1 H        0.925     0.054     2.268     2.355
    47   1 H        0.925     0.039     2.456     2.451
    48   1 H        0.925     0.052     2.297     2.370
    49   1 H        0.925     0.052     2.294     2.368
    50   1 H        0.925     0.044     2.399     2.422
    51   1 H        0.925     0.042     2.420     2.433
    52   1 H        0.925     0.043     2.415     2.430
    53   1 H        0.925     0.052     2.292     2.368
    54   1 H        0.925     0.044     2.401     2.423
    55   1 H        0.925     0.040     2.452     2.449
    56   1 H        0.925     0.052     2.293     2.368
    57   1 H        0.925     0.054     2.267     2.355
    58   1 H        0.925     0.038     2.481     2.463
    59   1 H        0.926     0.038     2.472     2.459
    60   1 H        0.925     0.026     2.646     2.544

 Mol. C6AA /au·bohr⁶  :      33272.232507
 Mol. C8AA /au·bohr⁸  :     771719.154737
 Mol. α(0) /au        :        277.020918


Wiberg/Mayer (AO) data.
largest (>0.10) Wiberg bond orders for each atom

 ---------------------------------------------------------------------------
     #   Z sym  total        # sym  WBO       # sym  WBO       # sym  WBO
 ---------------------------------------------------------------------------
     1   6 C    3.994 --     2 C    0.997    34 H    0.985    33 H    0.983
                            35 H    0.982
     2   6 C    3.943 --     1 C    0.997     4 C    0.991     3 O    0.954
                             5 C    0.937
     3   8 O    2.216 --     9 B    1.111     2 C    0.954
     4   6 C    3.994 --     2 C    0.991    38 H    0.984    37 H    0.984
                            36 H    0.983
     5   6 C    3.943 --     6 C    0.997     7 C    0.990     8 O    0.953
                             2 C    0.937
     6   6 C    3.994 --     5 C    0.997    39 H    0.985    41 H    0.983
                            40 H    0.982
     7   6 C    3.994 --     5 C    0.990    42 H    0.984    44 H    0.984
                            43 H    0.983
     8   8 O    2.223 --     9 B    1.118     5 C    0.953
     9   5 B    3.389 --     8 O    1.118     3 O    1.111    10 C    1.029
    10   6 C    3.917 --    11 C    1.254     9 B    1.029    27 C    0.919
                            29 C    0.460    31 C    0.132
    11   6 C    3.991 --    12 C    1.689    10 C    1.254    45 H    0.960
    12   6 C    3.978 --    11 C    1.689    14 C    0.974    13 H    0.971
                            31 C    0.129    29 C    0.119
    13   1 H    0.999 --    12 C    0.971
    14   6 C    3.995 --    16 C    0.986    31 C    0.981    12 C    0.974
                            15 H    0.972
    15   1 H    0.998 --    14 C    0.972
    16   6 C    3.976 --    26 C    1.843    17 B    0.999    14 C    0.986
    17   5 B    3.375 --    25 O    1.130    18 O    1.130    16 C    0.999
    18   8 O    2.236 --    17 B    1.130    19 C    0.953
    19   6 C    3.943 --    20 C    0.997    21 C    0.991    18 O    0.953
                            22 C    0.937
    20   6 C    3.994 --    19 C    0.997    47 H    0.985    46 H    0.983
                            48 H    0.982
    21   6 C    3.994 --    19 C    0.991    51 H    0.984    50 H    0.984
                            49 H    0.983
    22   6 C    3.943 --    24 C    0.996    23 C    0.990    25 O    0.953
                            19 C    0.937
    23   6 C    3.995 --    22 C    0.990    52 H    0.984    54 H    0.984
                            53 H    0.983
    24   6 C    3.994 --    22 C    0.996    55 H    0.985    57 H    0.983
                            56 H    0.982
    25   8 O    2.234 --    17 B    1.130    22 C    0.953
    26   6 C    3.988 --    16 C    1.843    27 C    1.031    58 H    0.966
    27   6 C    3.986 --    26 C    1.031    29 C    0.970    28 H    0.968
                            10 C    0.919
    28   1 H    0.998 --    27 C    0.968
    29   6 C    3.937 --    30 C    1.298    59 H    0.973    27 C    0.970
                            10 C    0.460    12 C    0.119
    30   6 C    3.992 --    31 C    1.655    29 C    1.298    60 H    0.962
    31   6 C    3.967 --    30 C    1.655    14 C    0.981    32 H    0.972
                            10 C    0.132    12 C    0.129
    32   1 H    0.999 --    31 C    0.972
    33   1 H    0.997 --     1 C    0.983
    34   1 H    0.998 --     1 C    0.985
    35   1 H    0.997 --     1 C    0.982
    36   1 H    0.997 --     4 C    0.983
    37   1 H    0.998 --     4 C    0.984
    38   1 H    0.998 --     4 C    0.984
    39   1 H    0.998 --     6 C    0.985
    40   1 H    0.997 --     6 C    0.982
    41   1 H    0.997 --     6 C    0.983
    42   1 H    0.998 --     7 C    0.984
    43   1 H    0.997 --     7 C    0.983
    44   1 H    0.998 --     7 C    0.984
    45   1 H    0.999 --    11 C    0.960
    46   1 H    0.997 --    20 C    0.983
    47   1 H    0.998 --    20 C    0.985
    48   1 H    0.997 --    20 C    0.982
    49   1 H    0.997 --    21 C    0.983
    50   1 H    0.998 --    21 C    0.984
    51   1 H    0.998 --    21 C    0.984
    52   1 H    0.998 --    23 C    0.984
    53   1 H    0.997 --    23 C    0.983
    54   1 H    0.998 --    23 C    0.984
    55   1 H    0.998 --    24 C    0.985
    56   1 H    0.997 --    24 C    0.982
    57   1 H    0.997 --    24 C    0.983
    58   1 H    0.998 --    26 C    0.966
    59   1 H    0.998 --    29 C    0.973
    60   1 H    0.999 --    30 C    0.962
 ---------------------------------------------------------------------------

Topologies differ in total number of bonds
Writing topology from bond orders to xtbtopo.mol

molecular dipole:
                 x           y           z       tot (Debye)
 q only:       -0.313      -0.323       0.006
   full:       -0.191      -0.383      -0.128       1.137
molecular quadrupole (traceless):
                xx          xy          yy          xz          yz          zz
 q only:      -35.290      26.211      37.943     -31.886     -11.275      -2.653
  q+dip:      -33.573      15.012      48.595     -25.895       0.809     -15.022
   full:      -33.793      13.989      50.062     -27.185      -0.638     -16.269

           -------------------------------------------------
          |                Geometry Summary                 |
           -------------------------------------------------

      molecular mass/u    :      382.1099696
   center of mass at/Å    :        2.9381984     -35.9540580      21.8395937
  moments of inertia/u·Å² :        0.1161400E+04   0.6930146E+04   0.7164987E+04
rotational constants/cm⁻¹ :        0.1451492E-01   0.2432508E-02   0.2352779E-02

 * 57 selected distances

     #   Z          #   Z                                           value/Å
     1   6 C        2   6 C                                       1.5271607
     2   6 C        3   8 O                                       1.4269236
     2   6 C        4   6 C                                       1.5342302
     5   6 C        6   6 C                                       1.5271546
     5   6 C        7   6 C                                       1.5341453
     5   6 C        8   8 O                                       1.4267095
     3   8 O        9   5 B                                       1.3721984
     8   8 O        9   5 B                                       1.3696465
     9   5 B       10   6 C                                       1.5458411
    10   6 C       11   6 C                                       1.4193459
    11   6 C       12   6 C                                       1.3494800
    12   6 C       13   1 H                                       1.0807284
    14   6 C       15   1 H                                       1.0919387
    16   6 C       17   5 B                                       1.5602623 (max)
    17   5 B       18   8 O                                       1.3676651
    18   8 O       19   6 C                                       1.4269677
    19   6 C       20   6 C                                       1.5269243
    19   6 C       21   6 C                                       1.5341272
    22   6 C       23   6 C                                       1.5340714
    22   6 C       24   6 C                                       1.5270543
    17   5 B       25   8 O                                       1.3672545
    22   6 C       25   8 O                                       1.4270271
    16   6 C       26   6 C                                       1.3340508
    26   6 C       27   6 C                                       1.4817223
    27   6 C       28   1 H                                       1.0891190
    27   6 C       29   6 C                                       1.4980326
    29   6 C       30   6 C                                       1.4052768
    30   6 C       31   6 C                                       1.3534405
    31   6 C       32   1 H                                       1.0807023
     1   6 C       33   1 H                                       1.0872971
     1   6 C       34   1 H                                       1.0865816
     1   6 C       35   1 H                                       1.0852555
     4   6 C       36   1 H                                       1.0877052
     4   6 C       37   1 H                                       1.0871058
     4   6 C       38   1 H                                       1.0859491
     6   6 C       39   1 H                                       1.0867444
     6   6 C       40   1 H                                       1.0851197
     6   6 C       41   1 H                                       1.0871731
     7   6 C       42   1 H                                       1.0857479
     7   6 C       43   1 H                                       1.0876324
     7   6 C       44   1 H                                       1.0872742
    11   6 C       45   1 H                                       1.0844618
    20   6 C       46   1 H                                       1.0872168
    20   6 C       47   1 H                                       1.0867231
    20   6 C       48   1 H                                       1.0851468
    21   6 C       49   1 H                                       1.0876165
    21   6 C       50   1 H                                       1.0871403
    21   6 C       51   1 H                                       1.0858876
    23   6 C       52   1 H                                       1.0858761
    23   6 C       53   1 H                                       1.0875714
    23   6 C       54   1 H                                       1.0870755
    24   6 C       55   1 H                                       1.0866683
    24   6 C       56   1 H                                       1.0850629
    24   6 C       57   1 H                                       1.0871234
    26   6 C       58   1 H                                       1.0818900
    29   6 C       59   1 H                                       1.0781196 (min)
    30   6 C       60   1 H                                       1.0851600

 * 5 distinct bonds (by element types)

   Z      Z             #   av. dist./Å        max./Å        min./Å
   1 H    6 C          32     1.0859630     1.0919387     1.0781196
   5 B    6 C           2     1.5530517     1.5602623     1.5458411
   6 C    6 C          15     1.4724145     1.5342302     1.3340508
   5 B    8 O           4     1.3691911     1.3721984     1.3672545
   6 C    8 O           4     1.4269070     1.4270271     1.4267095


optimized geometry written to: xtbopt.xyz


           -------------------------------------------------
          | TOTAL ENERGY              -82.289465274169 Eh   |
          | GRADIENT NORM               0.000776097280 Eh/α |
          | HOMO-LUMO GAP               2.056456696863 eV   |
           -------------------------------------------------

------------------------------------------------------------------------
 * finished run on 2022/07/09 at 18:33:33.502     
------------------------------------------------------------------------
 total:
 * wall-time:     0 d,  0 h,  0 min,  1.210 sec
 *  cpu-time:     0 d,  0 h,  0 min,  1.210 sec
 * ratio c/w:     0.999 speedup
 SCF:
 * wall-time:     0 d,  0 h,  0 min,  0.072 sec
 *  cpu-time:     0 d,  0 h,  0 min,  0.072 sec
 * ratio c/w:     0.999 speedup
 ANC optimizer:
 * wall-time:     0 d,  0 h,  0 min,  1.126 sec
 *  cpu-time:     0 d,  0 h,  0 min,  1.125 sec
 * ratio c/w:     0.999 speedup

