      -----------------------------------------------------------      
     |                   =====================                   |     
     |                           x T B                           |     
     |                   =====================                   |     
     |                         S. Grimme                         |     
     |          Mulliken Center for Theoretical Chemistry        |     
     |                    University of Bonn                     |     
      -----------------------------------------------------------      

   * xtb version 6.5.0 (homebrew) compiled by 'nhattrup@GPGGRP-SHANNON.CHEME.CMU.EDU' on 

   xtb is free software: you can redistribute it and/or modify it under
   the terms of the GNU Lesser General Public License as published by
   the Free Software Foundation, either version 3 of the License, or
   (at your option) any later version.
   
   xtb is distributed in the hope that it will be useful,
   but WITHOUT ANY WARRANTY; without even the implied warranty of
   MERCHANTABILITY or FITNESS FOR A PARTICULAR PURPOSE.  See the
   GNU Lesser General Public License for more details.
   
   Cite this work as:
   * C. Bannwarth, E. Caldeweyher, S. Ehlert, A. Hansen, P. Pracht,
     J. Seibert, S. Spicher, S. Grimme, WIREs Comput. Mol. Sci., 2020, 11,
     e01493. DOI: 10.1002/wcms.1493
   
   for GFN2-xTB:
   * C. Bannwarth, S. Ehlert and S. Grimme., J. Chem. Theory Comput., 2019,
     15, 1652-1671. DOI: 10.1021/acs.jctc.8b01176
   for GFN1-xTB:
   * S. Grimme, C. Bannwarth, P. Shushkov, J. Chem. Theory Comput., 2017,
     13, 1989-2009. DOI: 10.1021/acs.jctc.7b00118
   for GFN0-xTB:
   * P. Pracht, E. Caldeweyher, S. Ehlert, S. Grimme, ChemRxiv, 2019, preprint.
     DOI: 10.26434/chemrxiv.8326202.v1
   for GFN-FF:
   * S. Spicher and S. Grimme, Angew. Chem. Int. Ed., 2020, 59, 15665-15673.
     DOI: 10.1002/anie.202004239
   
   for ALPB and GBSA implicit solvation:
   * S. Ehlert, M. Stahn, S. Spicher, S. Grimme, J. Chem. Theory Comput.,
     2021, 17, 4250-4261. DOI: 10.1021/acs.jctc.1c00471
   
   for DFT-D4:
   * E. Caldeweyher, C. Bannwarth and S. Grimme, J. Chem. Phys., 2017,
     147, 034112. DOI: 10.1063/1.4993215
   * E. Caldeweyher, S. Ehlert, A. Hansen, H. Neugebauer, S. Spicher,
     C. Bannwarth and S. Grimme, J. Chem. Phys., 2019, 150, 154122.
     DOI: 10.1063/1.5090222
   * E. Caldeweyher, J.-M. Mewes, S. Ehlert and S. Grimme, Phys. Chem. Chem. Phys.
     2020, 22, 8499-8512. DOI: 10.1039/D0CP00502A
   
   for sTDA-xTB:
   * S. Grimme and C. Bannwarth, J. Chem. Phys., 2016, 145, 054103.
     DOI: 10.1063/1.4959605
   
   in the mass-spec context:
   * V. Asgeirsson, C. Bauer and S. Grimme, Chem. Sci., 2017, 8, 4879.
     DOI: 10.1039/c7sc00601b
   * J. Koopman and S. Grimme, ACS Omega 2019, 4, 12, 15120-15133.
     DOI: 10.1021/acsomega.9b02011
   
   for metadynamics refer to:
   * S. Grimme, J. Chem. Theory Comput., 2019, 155, 2847-2862
     DOI: 10.1021/acs.jctc.9b00143
   
   for SPH calculations refer to:
   * S. Spicher and S. Grimme, J. Chem. Theory Comput., 2021, 17, 1701-1714
     DOI: 10.1021/acs.jctc.0c01306
   
   with help from (in alphabetical order)
   P. Atkinson, C. Bannwarth, F. Bohle, G. Brandenburg, E. Caldeweyher
   M. Checinski, S. Dohm, S. Ehlert, S. Ehrlich, I. Gerasimov, C. Hölzer
   A. Katbashev, J. Koopman, C. Lavigne, S. Lehtola, F. März, M. Müller,
   F. Musil, H. Neugebauer, J. Pisarek, C. Plett, P. Pracht, F. Pultar,
   J. Seibert, P. Shushkov, S. Spicher, M. Stahn, M. Steiner, T. Strunk,
   J. Stückrath, T. Rose, and J. Unsleber
   
 * started run on 2022/07/09 at 18:33:18.312     

           -------------------------------------------------
          |                Calculation Setup                |
           -------------------------------------------------

          program call               : /opt/homebrew/bin/xtb bvl_bpin2_scan_2-6_xtb.xyz --chrg 0 --uhf 0 --opt --input xcontrol_bvl_bpin2_scan_2-6_xtb
          coordinate file            : bvl_bpin2_scan_2-6_xtb.xyz
          omp threads                :                     1

   ID    Z sym.   atoms
    1    6 C      1, 2, 4-7, 10-12, 14, 16, 19-24, 26, 27, 29-31
    2    8 O      3, 8, 18, 25
    3    5 B      9, 17
    4    1 H      13, 15, 28, 32-60
constraining bond 12 31 to    1.7222000 Å, actual value:    1.6109430 Å
constraining bond 10 29 to    1.8333000 Å, actual value:    1.9477053 Å

           -------------------------------------------------
          |                 G F N 2 - x T B                 |
           -------------------------------------------------

        Reference                      10.1021/acs.jctc.8b01176
      * Hamiltonian:
        H0-scaling (s, p, d)           1.850000    2.230000    2.230000
        zeta-weighting                 0.500000
      * Dispersion:
        s8                             2.700000
        a1                             0.520000
        a2                             5.000000
        s9                             5.000000
      * Repulsion:
        kExp                           1.500000    1.000000
        rExp                           1.000000
      * Coulomb:
        alpha                          2.000000
        third order                    shell-resolved
        anisotropic                    true
        a3                             3.000000
        a5                             4.000000
        cn-shift                       1.200000
        cn-exp                         4.000000
        max-rad                        5.000000


          ...................................................
          :                      SETUP                      :
          :.................................................:
          :  # basis functions                 144          :
          :  # atomic orbitals                 144          :
          :  # shells                           88          :
          :  # electrons                       150          :
          :  max. iterations                   250          :
          :  Hamiltonian                  GFN2-xTB          :
          :  restarted?                      false          :
          :  GBSA solvation                  false          :
          :  PC potential                    false          :
          :  electronic temp.          300.0000000     K    :
          :  accuracy                    1.0000000          :
          :  -> integral cutoff          0.2500000E+02      :
          :  -> integral neglect         0.1000000E-07      :
          :  -> SCF convergence          0.1000000E-05 Eh   :
          :  -> wf. convergence          0.1000000E-03 e    :
          :  Broyden damping             0.4000000          :
          ...................................................

 iter      E             dE          RMSdq      gap      omega  full diag
   1    -82.9523044 -0.829523E+02  0.465E+00    3.15       0.0  T
   2    -83.3371684 -0.384864E+00  0.286E+00    2.65       1.0  T
   3    -83.3506432 -0.134747E-01  0.135E+00    2.99       1.0  T
   4    -83.3725379 -0.218947E-01  0.399E-01    2.83       1.0  T
   5    -83.3834437 -0.109058E-01  0.144E-01    2.90       1.0  T
   6    -83.3833710  0.726780E-04  0.966E-02    2.90       1.0  T
   7    -83.3835977 -0.226708E-03  0.302E-02    2.89       1.0  T
   8    -83.3836325 -0.348168E-04  0.965E-03    2.89       1.3  T
   9    -83.3836344 -0.194190E-05  0.531E-03    2.89       2.4  T
  10    -83.3836352 -0.728660E-06  0.242E-03    2.89       5.3  T
  11    -83.3836353 -0.102779E-06  0.569E-04    2.89      22.7  T
  12    -83.3836353 -0.129078E-07  0.275E-04    2.89      46.9  T

   *** convergence criteria satisfied after 12 iterations ***

         #    Occupation            Energy/Eh            Energy/eV
      -------------------------------------------------------------
         1        2.0000           -0.6896189             -18.7655
       ...           ...                  ...                  ...
        69        2.0000           -0.4079369             -11.1005
        70        2.0000           -0.3987875             -10.8516
        71        2.0000           -0.3975236             -10.8172
        72        2.0000           -0.3957151             -10.7680
        73        2.0000           -0.3809620             -10.3665
        74        2.0000           -0.3666941              -9.9783
        75        2.0000           -0.3300985              -8.9824 (HOMO)
        76                         -0.2238286              -6.0907 (LUMO)
        77                         -0.2126460              -5.7864
        78                         -0.1702423              -4.6325
        79                         -0.1031113              -2.8058
        80                         -0.0855984              -2.3293
       ...                                ...                  ...
       144                          0.6964899              18.9525
      -------------------------------------------------------------
                  HL-Gap            0.1062698 Eh            2.8917 eV
             Fermi-level           -0.2769635 Eh           -7.5366 eV

 SCC (total)                   0 d,  0 h,  0 min,  0.070 sec
 SCC setup                      ...        0 min,  0.000 sec (  0.340%)
 Dispersion                     ...        0 min,  0.000 sec (  0.596%)
 classical contributions        ...        0 min,  0.000 sec (  0.251%)
 integral evaluation            ...        0 min,  0.006 sec (  8.729%)
 iterations                     ...        0 min,  0.033 sec ( 46.997%)
 molecular gradient             ...        0 min,  0.030 sec ( 42.532%)
 printout                       ...        0 min,  0.000 sec (  0.545%)

         :::::::::::::::::::::::::::::::::::::::::::::::::::::
         ::                     SUMMARY                     ::
         :::::::::::::::::::::::::::::::::::::::::::::::::::::
         :: total energy             -82.122594506441 Eh    ::
         :: gradient norm              1.679851921309 Eh/a0 ::
         :: HOMO-LUMO gap              2.891749489480 eV    ::
         ::.................................................::
         :: SCC energy               -83.383635288933 Eh    ::
         :: -> isotropic ES            0.147666247042 Eh    ::
         :: -> anisotropic ES          0.011546421372 Eh    ::
         :: -> anisotropic XC          0.026171723268 Eh    ::
         :: -> dispersion             -0.061077060797 Eh    ::
         :: repulsion energy           1.078508087429 Eh    ::
         :: add. restraining           0.181886263278 Eh    ::
         :: total charge              -0.000000000000 e     ::
         :::::::::::::::::::::::::::::::::::::::::::::::::::::

      ----------------------------------------------------------- 
     |                   =====================                   |
     |                        A N C O P T                        |
     |                   =====================                   |
     |               Approximate Normal Coordinate               |
     |                Rational Function Optimizer                |
      ----------------------------------------------------------- 

          ...................................................
          :                      SETUP                      :
          :.................................................:
          :   optimization level            normal          :
          :   max. optcycles                   200          :
          :   ANC micro-cycles                  20          :
          :   degrees of freedom               174          :
          :.................................................:
          :   RF solver                   davidson          :
          :   write xtbopt.log                true          :
          :   linear?                        false          :
          :   energy convergence         0.5000000E-05 Eh   :
          :   grad. convergence          0.1000000E-02 Eh/α :
          :   maximium RF displ.         1.0000000          :
          :   Hlow (freq-cutoff)         0.1000000E-01      :
          :   Hmax (freq-cutoff)         5.0000000          :
          :   S6 in model hess.         20.0000000          :
          ...................................................

generating ANC from model Hessian ...
Using Lindh-Hessian (1995)
 Shifting diagonal of input Hessian by   0.20706175252385564     
 Lowest  eigenvalues of input Hessian
    0.010000    0.131965    0.000000    0.000000    0.000000    0.000000
    0.000000    0.000000    0.207175    0.207204    0.207355    0.208713
    0.208949    0.209854    0.210334    0.210407    0.211732    0.212232
 Highest eigenvalues
    1.928419    2.029711    2.128286    2.257920    8.949249    9.342222


........................................................................
.............................. CYCLE    1 ..............................
........................................................................
   1    -83.3836353 -0.833836E+02  0.144E-04    2.89       0.0  T
   2    -83.3836353 -0.845603E-09  0.999E-05    2.89     129.3  T
   3    -83.3836353 -0.461753E-09  0.424E-05    2.89     304.8  T
     SCC iter.                  ...        0 min,  0.008 sec
     gradient                   ...        0 min,  0.028 sec
 * total energy  :   -82.1225945 Eh     change       -0.1057813E-08 Eh
   gradient norm :     1.6798493 Eh/α   predicted     0.0000000E+00 (-100.00%)
   displ. norm   :     0.3104741 α      lambda       -0.5160816E+00
   maximum displ.:     0.2294773 α      in ANC's #174, #173, #128, ...

........................................................................
.............................. CYCLE    2 ..............................
........................................................................
   1    -83.3691602 -0.833692E+02  0.418E-01    2.81       0.0  T
   2    -83.3696605 -0.500327E-03  0.291E-01    2.77       1.0  T
   3    -83.3687076  0.952963E-03  0.158E-01    2.79       1.0  T
   4    -83.3701864 -0.147882E-02  0.426E-02    2.78       1.0  T
   5    -83.3702829 -0.965345E-04  0.686E-03    2.78       1.9  T
   6    -83.3702834 -0.441446E-06  0.384E-03    2.78       3.4  T
   7    -83.3702835 -0.167949E-06  0.155E-03    2.78       8.3  T
   8    -83.3702836 -0.692368E-07  0.538E-04    2.78      24.0  T
   9    -83.3702836 -0.100794E-07  0.196E-04    2.78      65.9  T
     SCC iter.                  ...        0 min,  0.025 sec
     gradient                   ...        0 min,  0.028 sec
 * total energy  :   -82.2559819 Eh     change       -0.1333874E+00 Eh
   gradient norm :     0.8184139 Eh/α   predicted    -0.2829503E+00 ( 112.13%)
   displ. norm   :     0.1054509 α      lambda       -0.8197445E-01
   maximum displ.:     0.0733190 α      in ANC's #174, #173, #170, ...

........................................................................
.............................. CYCLE    3 ..............................
........................................................................
   1    -83.3736885 -0.833737E+02  0.134E-01    2.79       0.0  T
   2    -83.3737984 -0.109834E-03  0.104E-01    2.80       1.0  T
   3    -83.3738414 -0.430036E-04  0.531E-02    2.79       1.0  T
   4    -83.3739139 -0.724748E-04  0.185E-02    2.79       1.0  T
   5    -83.3739319 -0.180130E-04  0.292E-03    2.79       4.4  T
   6    -83.3739321 -0.249749E-06  0.151E-03    2.79       8.6  T
   7    -83.3739321 -0.196457E-07  0.571E-04    2.79      22.6  T
   8    -83.3739322 -0.760537E-08  0.219E-04    2.79      59.0  T
     SCC iter.                  ...        0 min,  0.022 sec
     gradient                   ...        0 min,  0.028 sec
 * total energy  :   -82.2982602 Eh     change       -0.4227831E-01 Eh
   gradient norm :     0.0346333 Eh/α   predicted    -0.4148517E-01 (  -1.88%)
   displ. norm   :     0.0404289 α      lambda       -0.9612547E-03
   maximum displ.:     0.0135226 α      in ANC's #1, #37, #43, ...

........................................................................
.............................. CYCLE    4 ..............................
........................................................................
   1    -83.3737769 -0.833738E+02  0.287E-02    2.79       0.0  T
   2    -83.3737845 -0.751144E-05  0.182E-02    2.79       1.0  T
   3    -83.3737853 -0.814938E-06  0.110E-02    2.79       1.2  T
   4    -83.3737885 -0.322460E-05  0.386E-03    2.79       3.3  T
   5    -83.3737892 -0.726704E-06  0.799E-04    2.79      16.1  T
   6    -83.3737893 -0.287772E-07  0.288E-04    2.79      44.8  T
     SCC iter.                  ...        0 min,  0.017 sec
     gradient                   ...        0 min,  0.028 sec
 * total energy  :   -82.2990016 Eh     change       -0.7414066E-03 Eh
   gradient norm :     0.0186364 Eh/α   predicted    -0.4816192E-03 ( -35.04%)
   displ. norm   :     0.2900485 α      lambda       -0.1930251E-02
   maximum displ.:     0.2684409 α      in ANC's #1, #37, #43, ...

........................................................................
.............................. CYCLE    5 ..............................
........................................................................
   1    -83.3664026 -0.833664E+02  0.184E-01    2.79       0.0  T
   2    -83.3664824 -0.798465E-04  0.108E-01    2.79       1.0  T
   3    -83.3663824  0.100029E-03  0.643E-02    2.79       1.0  T
   4    -83.3665314 -0.148978E-03  0.139E-02    2.79       1.0  T
   5    -83.3665426 -0.112492E-04  0.214E-03    2.79       6.0  T
   6    -83.3665427 -0.925476E-07  0.118E-03    2.79      11.0  T
   7    -83.3665428 -0.164248E-07  0.541E-04    2.79      23.9  T
   8    -83.3665428 -0.110576E-07  0.131E-04    2.79      98.7  T
     SCC iter.                  ...        0 min,  0.022 sec
     gradient                   ...        0 min,  0.028 sec
 * total energy  :   -82.2945783 Eh     change        0.4423358E-02 Eh
   gradient norm :     0.0891998 Eh/α   predicted    -0.1046235E-02 (-123.65%)
   displ. norm   :     0.2544255 α      lambda       -0.1053808E-01
   maximum displ.:     0.2538078 α      in ANC's #1, #44, #37, ...

........................................................................
.............................. CYCLE    6 ..............................
........................................................................
   1    -83.3730198 -0.833730E+02  0.160E-01    2.78       0.0  T
   2    -83.3730601 -0.402757E-04  0.932E-02    2.78       1.0  T
   3    -83.3729935  0.665387E-04  0.555E-02    2.78       1.0  T
   4    -83.3730892 -0.956281E-04  0.928E-03    2.78       1.4  T
   5    -83.3730948 -0.562008E-05  0.149E-03    2.78       8.7  T
   6    -83.3730948  0.946906E-08  0.965E-04    2.78      13.4  T
   7    -83.3730948 -0.313500E-07  0.231E-04    2.78      56.0  T
     SCC iter.                  ...        0 min,  0.019 sec
     gradient                   ...        0 min,  0.029 sec
 * total energy  :   -82.2994336 Eh     change       -0.4855357E-02 Eh
   gradient norm :     0.0285664 Eh/α   predicted    -0.5610920E-02 (  15.56%)
   displ. norm   :     0.0437835 α      lambda       -0.5203795E-03
   maximum displ.:     0.0118348 α      in ANC's #119, #109, #128, ...

........................................................................
.............................. CYCLE    7 ..............................
........................................................................
   1    -83.3739799 -0.833740E+02  0.351E-02    2.79       0.0  T
   2    -83.3739914 -0.115270E-04  0.218E-02    2.79       1.0  T
   3    -83.3739919 -0.472391E-06  0.129E-02    2.79       1.0  T
   4    -83.3739963 -0.442370E-05  0.463E-03    2.79       2.8  T
   5    -83.3739974 -0.110955E-05  0.957E-04    2.79      13.5  T
   6    -83.3739974 -0.410176E-07  0.339E-04    2.79      38.1  T
   7    -83.3739974 -0.113515E-08  0.137E-04    2.79      94.1  T
     SCC iter.                  ...        0 min,  0.019 sec
     gradient                   ...        0 min,  0.028 sec
 * total energy  :   -82.2995561 Eh     change       -0.1224726E-03 Eh
   gradient norm :     0.0191083 Eh/α   predicted    -0.2616283E-03 ( 113.62%)
   displ. norm   :     0.0262786 α      lambda       -0.3152945E-03
   maximum displ.:     0.0103732 α      in ANC's #37, #28, #43, ...

........................................................................
.............................. CYCLE    8 ..............................
........................................................................
   1    -83.3738820 -0.833739E+02  0.143E-02    2.79       0.0  T
   2    -83.3738829 -0.856672E-06  0.854E-03    2.78       1.5  T
   3    -83.3738823  0.568796E-06  0.436E-03    2.78       3.0  T
   4    -83.3738832 -0.877829E-06  0.119E-03    2.79      10.8  T
   5    -83.3738833 -0.806312E-07  0.255E-04    2.78      50.7  T
   6    -83.3738833 -0.203821E-08  0.124E-04    2.78     104.0  T
     SCC iter.                  ...        0 min,  0.017 sec
     gradient                   ...        0 min,  0.028 sec
 * total energy  :   -82.2996595 Eh     change       -0.1034123E-03 Eh
   gradient norm :     0.0035482 Eh/α   predicted    -0.8033167E-04 ( -22.32%)
   displ. norm   :     0.0323511 α      lambda       -0.2371835E-03
   maximum displ.:     0.0141458 α      in ANC's #28, #37, #43, ...

........................................................................
.............................. CYCLE    9 ..............................
........................................................................
   1    -83.3740117 -0.833740E+02  0.154E-02    2.78       0.0  T
   2    -83.3740119 -0.195938E-06  0.914E-03    2.78       1.4  T
   3    -83.3740110  0.852778E-06  0.390E-03    2.78       3.3  T
   4    -83.3740120 -0.985316E-06  0.622E-04    2.78      20.7  T
   5    -83.3740120 -0.191599E-07  0.209E-04    2.78      61.9  T
     SCC iter.                  ...        0 min,  0.014 sec
     gradient                   ...        0 min,  0.028 sec
 * total energy  :   -82.2997200 Eh     change       -0.6054590E-04 Eh
   gradient norm :     0.0051816 Eh/α   predicted    -0.3986989E-04 ( -34.15%)
   displ. norm   :     0.0561036 α      lambda       -0.4525058E-03
   maximum displ.:     0.0268184 α      in ANC's #28, #37, #36, ...

........................................................................
.............................. CYCLE   10 ..............................
........................................................................
   1    -83.3744452 -0.833744E+02  0.268E-02    2.79       0.0  T
   2    -83.3744455 -0.341610E-06  0.159E-02    2.79       1.0  T
   3    -83.3744437  0.184717E-05  0.581E-03    2.79       2.2  T
   4    -83.3744458 -0.208667E-05  0.750E-04    2.79      17.2  T
   5    -83.3744458 -0.216559E-07  0.369E-04    2.79      35.0  T
   6    -83.3744458 -0.206676E-08  0.181E-04    2.79      71.4  T
     SCC iter.                  ...        0 min,  0.016 sec
     gradient                   ...        0 min,  0.028 sec
 * total energy  :   -82.2997920 Eh     change       -0.7192680E-04 Eh
   gradient norm :     0.0086561 Eh/α   predicted    -0.5704633E-04 ( -20.69%)
   displ. norm   :     0.0307774 α      lambda       -0.2079717E-03
   maximum displ.:     0.0158503 α      in ANC's #28, #37, #36, ...

........................................................................
.............................. CYCLE   11 ..............................
........................................................................
   1    -83.3747916 -0.833748E+02  0.148E-02    2.79       0.0  T
   2    -83.3747918 -0.212767E-06  0.879E-03    2.79       1.5  T
   3    -83.3747912  0.629716E-06  0.372E-03    2.79       3.5  T
   4    -83.3747919 -0.736860E-06  0.534E-04    2.79      24.2  T
   5    -83.3747920 -0.149305E-07  0.217E-04    2.79      59.4  T
     SCC iter.                  ...        0 min,  0.014 sec
     gradient                   ...        0 min,  0.028 sec
 * total energy  :   -82.2998197 Eh     change       -0.2775657E-04 Eh
   gradient norm :     0.0025566 Eh/α   predicted    -0.2098222E-04 ( -24.41%)
   displ. norm   :     0.0179119 α      lambda       -0.1284071E-03
   maximum displ.:     0.0096825 α      in ANC's #28, #8, #6, ...

........................................................................
.............................. CYCLE   12 ..............................
........................................................................
   1    -83.3751004 -0.833751E+02  0.857E-03    2.79       0.0  T
   2    -83.3751006 -0.207449E-06  0.513E-03    2.79       2.5  T
   3    -83.3751004  0.214476E-06  0.237E-03    2.79       5.4  T
   4    -83.3751007 -0.301622E-06  0.326E-04    2.79      39.6  T
   5    -83.3751007 -0.509293E-08  0.134E-04    2.79      96.0  T
     SCC iter.                  ...        0 min,  0.014 sec
     gradient                   ...        0 min,  0.028 sec
 * total energy  :   -82.2998352 Eh     change       -0.1552416E-04 Eh
   gradient norm :     0.0021635 Eh/α   predicted    -0.1078521E-04 ( -30.53%)
   displ. norm   :     0.0208720 α      lambda       -0.1444641E-03
   maximum displ.:     0.0107278 α      in ANC's #28, #8, #6, ...

........................................................................
.............................. CYCLE   13 ..............................
........................................................................
   1    -83.3753834 -0.833754E+02  0.818E-03    2.79       0.0  T
   2    -83.3753835 -0.990843E-07  0.489E-03    2.79       2.6  T
   3    -83.3753833  0.149943E-06  0.188E-03    2.79       6.9  T
   4    -83.3753835 -0.178316E-06  0.377E-04    2.79      34.2  T
   5    -83.3753835 -0.573634E-08  0.162E-04    2.79      79.9  T
     SCC iter.                  ...        0 min,  0.014 sec
     gradient                   ...        0 min,  0.028 sec
 * total energy  :   -82.2998508 Eh     change       -0.1550328E-04 Eh
   gradient norm :     0.0036186 Eh/α   predicted    -0.1039301E-04 ( -32.96%)
   displ. norm   :     0.0298923 α      lambda       -0.1937486E-03
   maximum displ.:     0.0147616 α      in ANC's #28, #8, #6, ...

........................................................................
.............................. CYCLE   14 ..............................
........................................................................
   1    -83.3756136 -0.833756E+02  0.996E-03    2.80       0.0  T
   2    -83.3756137 -0.793097E-07  0.601E-03    2.80       2.1  T
   3    -83.3756134  0.303217E-06  0.263E-03    2.80       4.9  T
   4    -83.3756137 -0.341321E-06  0.387E-04    2.80      33.4  T
   5    -83.3756137 -0.638771E-08  0.167E-04    2.80      77.5  T
     SCC iter.                  ...        0 min,  0.014 sec
     gradient                   ...        0 min,  0.028 sec
 * total energy  :   -82.2998683 Eh     change       -0.1756751E-04 Eh
   gradient norm :     0.0035876 Eh/α   predicted    -0.1220242E-04 ( -30.54%)
   displ. norm   :     0.0306760 α      lambda       -0.1870011E-03
   maximum displ.:     0.0145387 α      in ANC's #28, #8, #6, ...

........................................................................
.............................. CYCLE   15 ..............................
........................................................................
   1    -83.3756735 -0.833757E+02  0.937E-03    2.80       0.0  T
   2    -83.3756736 -0.914729E-07  0.570E-03    2.80       2.3  T
   3    -83.3756732  0.375275E-06  0.308E-03    2.80       4.2  T
   4    -83.3756737 -0.450728E-06  0.385E-04    2.80      33.5  T
   5    -83.3756737 -0.735621E-08  0.163E-04    2.80      79.3  T
     SCC iter.                  ...        0 min,  0.014 sec
     gradient                   ...        0 min,  0.028 sec
 * total energy  :   -82.2998831 Eh     change       -0.1482316E-04 Eh
   gradient norm :     0.0025031 Eh/α   predicted    -0.1046192E-04 ( -29.42%)
   displ. norm   :     0.0252992 α      lambda       -0.1643462E-03
   maximum displ.:     0.0111495 α      in ANC's #28, #8, #6, ...

........................................................................
.............................. CYCLE   16 ..............................
........................................................................
   1    -83.3755859 -0.833756E+02  0.791E-03    2.80       0.0  T
   2    -83.3755860 -0.969139E-07  0.482E-03    2.80       2.7  T
   3    -83.3755857  0.243566E-06  0.272E-03    2.80       4.7  T
   4    -83.3755860 -0.318870E-06  0.371E-04    2.80      34.8  T
   5    -83.3755860 -0.832813E-08  0.129E-04    2.80     100.0  T
     SCC iter.                  ...        0 min,  0.014 sec
     gradient                   ...        0 min,  0.028 sec
 * total energy  :   -82.2998938 Eh     change       -0.1065707E-04 Eh
   gradient norm :     0.0016287 Eh/α   predicted    -0.7569469E-05 ( -28.97%)
   displ. norm   :     0.0299459 α      lambda       -0.1260920E-03
   maximum displ.:     0.0115075 α      in ANC's #28, #6, #8, ...

........................................................................
.............................. CYCLE   17 ..............................
........................................................................
   1    -83.3753890 -0.833754E+02  0.104E-02    2.80       0.0  T
   2    -83.3753891 -0.122308E-06  0.625E-03    2.80       2.1  T
   3    -83.3753887  0.339267E-06  0.296E-03    2.80       4.4  T
   4    -83.3753892 -0.407903E-06  0.473E-04    2.80      27.3  T
   5    -83.3753892 -0.121327E-07  0.169E-04    2.80      76.6  T
     SCC iter.                  ...        0 min,  0.014 sec
     gradient                   ...        0 min,  0.028 sec
 * total energy  :   -82.2999031 Eh     change       -0.9333238E-05 Eh
   gradient norm :     0.0023310 Eh/α   predicted    -0.5310806E-05 ( -43.10%)
   displ. norm   :     0.0086784 α      lambda       -0.8034501E-04
   maximum displ.:     0.0033774 α      in ANC's #29, #6, #30, ...

........................................................................
.............................. CYCLE   18 ..............................
........................................................................
   1    -83.3753532 -0.833754E+02  0.356E-03    2.80       0.0  T
   2    -83.3753532 -0.781753E-08  0.210E-03    2.80       6.2  T
   3    -83.3753532  0.425368E-07  0.924E-04    2.80      14.0  T
   4    -83.3753532 -0.482197E-07  0.129E-04    2.80     100.0  T
     SCC iter.                  ...        0 min,  0.011 sec
     gradient                   ...        0 min,  0.028 sec
 * total energy  :   -82.2999086 Eh     change       -0.5493088E-05 Eh
   gradient norm :     0.0018984 Eh/α   predicted    -0.3128200E-05 ( -43.05%)
   displ. norm   :     0.0530237 α      lambda       -0.2720700E-03
   maximum displ.:     0.0206312 α      in ANC's #29, #6, #8, ...

........................................................................
.............................. CYCLE   19 ..............................
........................................................................
   1    -83.3752084 -0.833752E+02  0.184E-02    2.79       0.0  T
   2    -83.3752086 -0.184210E-06  0.109E-02    2.79       1.2  T
   3    -83.3752071  0.147094E-05  0.544E-03    2.79       2.4  T
   4    -83.3752088 -0.169135E-05  0.595E-04    2.79      21.7  T
   5    -83.3752088 -0.150610E-07  0.266E-04    2.79      48.6  T
   6    -83.3752088 -0.698890E-09  0.136E-04    2.79      94.7  T
     SCC iter.                  ...        0 min,  0.017 sec
     gradient                   ...        0 min,  0.028 sec
 * total energy  :   -82.2999206 Eh     change       -0.1200520E-04 Eh
   gradient norm :     0.0023266 Eh/α   predicted    -0.9919716E-05 ( -17.37%)
   displ. norm   :     0.0038753 α      lambda       -0.6346741E-04
   maximum displ.:     0.0011446 α      in ANC's #59, #40, #6, ...

........................................................................
.............................. CYCLE   20 ..............................
........................................................................
   1    -83.3752547 -0.833753E+02  0.241E-03    2.79       0.0  T
   2    -83.3752547 -0.720222E-08  0.143E-03    2.79       9.1  T
   3    -83.3752547  0.162210E-07  0.584E-04    2.79      22.1  T
   4    -83.3752547 -0.175164E-07  0.154E-04    2.79      83.9  T
     SCC iter.                  ...        0 min,  0.011 sec
     gradient                   ...        0 min,  0.028 sec
 * total energy  :   -82.2999244 Eh     change       -0.3804158E-05 Eh
   gradient norm :     0.0015575 Eh/α   predicted    -0.2190009E-05 ( -42.43%)
   displ. norm   :     0.0058561 α      lambda       -0.7689393E-04
   maximum displ.:     0.0017321 α      in ANC's #59, #40, #6, ...
 * RMSD in coord.:     0.0583938 α      energy gain  -0.1773299E+00 Eh

generating ANC from model Hessian ...
Using Lindh-Hessian (1995)
 Shifting diagonal of input Hessian by    9.8913463007307308E-003
 Lowest  eigenvalues of input Hessian
    0.000000    0.000000    0.000000    0.000000    0.000000    0.000000
    0.010000    0.010031    0.010117    0.010546    0.011129    0.011818
    0.012424    0.013198    0.013215    0.014114    0.014753    0.015131
 Highest eigenvalues
    1.730099    1.812182    1.867351    1.934526    8.817246    8.969863


........................................................................
.............................. CYCLE   21 ..............................
........................................................................
   1    -83.3753217 -0.833753E+02  0.365E-03    2.79       0.0  T
   2    -83.3753217 -0.159132E-07  0.216E-03    2.79       6.0  T
   3    -83.3753217  0.555508E-07  0.107E-03    2.79      12.0  T
   4    -83.3753217 -0.616198E-07  0.217E-04    2.79      59.6  T
   5    -83.3753217 -0.220764E-08  0.548E-05    2.79     235.7  T
     SCC iter.                  ...        0 min,  0.014 sec
     gradient                   ...        0 min,  0.028 sec
 * total energy  :   -82.2999280 Eh     change       -0.3569640E-05 Eh
   gradient norm :     0.0006553 Eh/α   predicted     0.0000000E+00 (-100.00%)
   displ. norm   :     0.0342532 α      lambda       -0.9855926E-05
   maximum displ.:     0.0158450 α      in ANC's #6, #10, #1, ...

   *** GEOMETRY OPTIMIZATION CONVERGED AFTER 21 ITERATIONS ***

------------------------------------------------------------------------
 total energy gain   :        -0.1773335 Eh     -111.2785 kcal/mol
 total RMSD          :         0.0583938 a0        0.0309 Å
 total power (kW/mol):       -22.1709065 (step) -407.6534 (real)
------------------------------------------------------------------------

 ANCopt (total)                0 d,  0 h,  0 min,  1.142 sec
 optimizer setup                ...        0 min,  0.000 sec (  0.008%)
 model hessian                  ...        0 min,  0.065 sec (  5.671%)
 ANC generation                 ...        0 min,  0.006 sec (  0.493%)
 coordinate transformation      ...        0 min,  0.000 sec (  0.028%)
 single point calculation       ...        0 min,  1.063 sec ( 93.060%)
 optimization log               ...        0 min,  0.004 sec (  0.392%)
 hessian update                 ...        0 min,  0.000 sec (  0.042%)
 rational function              ...        0 min,  0.003 sec (  0.228%)

================
 final structure:
================
60
 xtb: 6.5.0 (homebrew)
C            3.45936244286646      -37.75933877001855       15.93064009058433
C            3.71051726818354      -38.15648908467532       17.38379578164562
O            3.23917121628003      -37.12211731570230       18.24718286354100
C            2.89275045549631      -39.41361086529491       17.70621853027336
C            5.22673032604236      -38.29091306544564       17.78160823317818
C            5.73807195374086      -39.72544765978944       17.89518440389240
C            6.16213508558934      -37.49573412916036       16.86239418520455
O            5.28307208695598      -37.66808231673928       19.06518224988907
B            4.14622842852149      -36.93695919832776       19.25403075427700
C            3.90391969990016      -36.00264385617666       20.48249458449881
C            4.93707938864685      -35.84830557588698       21.40031566136789
C            4.98210925975065      -34.90451626359138       22.43808889340474
H            5.92801970542554      -34.81539092285840       22.95791125242384
C            3.81595383552371      -34.24534132623483       23.11134519410608
H            4.05983750208959      -33.85483480211104       24.09474102219201
C            2.46256563112899      -34.86616147316148       23.12413236297625
B            1.70561484959319      -34.89192856863996       24.48783185385395
O            2.21030017114290      -34.38318040528727       25.65353313097000
C            1.34163749573547      -34.74600670330538       26.72623145741648
C            1.19584509028944      -33.56803261415812       27.68681561673841
C            2.00953332484447      -35.91490849270164       27.46180886710536
C            0.01986906310163      -35.16614461982644       25.98623106396557
C           -0.99686568077815      -34.02195277797291       25.88487796238365
C           -0.67279522936561      -36.40274503698065       26.55466790245094
O            0.46645830476432      -35.44229889896231       24.65930401640298
C            1.90867542405494      -35.41450758574950       22.04181726106008
C            2.49417302258515      -35.51140672110002       20.68809914909182
H            1.80931509486742      -36.00024763656717       19.99998476891479
C            3.19466584606667      -34.36862379581856       20.04354300198055
C            3.84962135201489      -33.33153141354907       20.67266443585370
C            4.31547146421373      -33.37877993358116       21.99976750109606
H            4.93821427155957      -32.54891683753180       22.31087405705672
H            2.38684516822156      -37.70436735406844       15.76082413500789
H            3.88353835671109      -38.50257087358595       15.26114274624764
H            3.88487376804362      -36.78611226611458       15.70832813098766
H            1.83952417541573      -39.18947675225051       17.55304975529905
H            3.02827437102809      -39.69416879828228       18.74760080148792
H            3.17448556763898      -40.24118113690069       17.06214812409750
H            5.63296319128209      -40.24119491181941       16.94458821456065
H            5.20407083777619      -40.27135600470094       18.66601595964044
H            6.78999030130043      -39.70152906716616       18.16838275038978
H            6.19940216736358      -37.93035772851375       15.86818918039784
H            7.16060042020089      -37.50981026011083       17.29328570825144
H            5.83935831828866      -36.45948208983970       16.80069401607030
H            5.88065228091071      -36.29628582054342       21.11670045145260
H            2.15750786685434      -33.37398591938481       28.15546744400358
H            0.46910282020655      -33.80223729568350       28.46002911649207
H            0.89006226636476      -32.66880550968333       27.16200612907205
H            2.99125125791972      -35.59329615954996       27.80208779001637
H            2.14778530826489      -36.75392701610294       26.78446605414087
H            1.42232108181314      -36.22662097305668       28.32034244002585
H           -1.41627668519569      -33.78033104428671       26.85690286633330
H           -1.79925695944494      -34.33261259844311       25.21972525087233
H           -0.52828335817231      -33.14020978777045       25.45508836458312
H           -0.94279682177166      -36.24014147049883       27.59459084297255
H           -0.03632502954543      -37.27816481383609       26.47699467915191
H           -1.57698850381244      -36.59271081089167       25.98173885767374
H            0.92487276961446      -35.85123302863525       22.14762935990774
H            3.03404691712147      -34.28086691950274       18.97714846601674
H            4.28480999476979      -32.56691492187096       20.04129425505126

 Bond Distances (Angstroems)
 ---------------------------
C1-C2=1.5272         C1-H33=1.0873        C1-H34=1.0865        C1-H35=1.0852        C2-C1=1.5272         C2-O3=1.4274         
C2-C4=1.5340         C2-C5=1.5733         O3-C2=1.4274         O3-B9=1.3678         C4-C2=1.5340         C4-H36=1.0877        
C4-H37=1.0870        C4-H38=1.0859        C5-C2=1.5733         C5-C6=1.5272         C5-C7=1.5337         C5-O8=1.4278         
C6-C5=1.5272         C6-H39=1.0866        C6-H40=1.0851        C6-H41=1.0871        C7-C5=1.5337         C7-H42=1.0857        
C7-H43=1.0876        C7-H44=1.0871        O8-C5=1.4278         O8-B9=1.3648         B9-O3=1.3678         B9-O8=1.3648         
B9-C10=1.5623        C10-B9=1.5623        C10-C11=1.3906       C10-C27=1.5070       C10-C29=1.8346       C11-C10=1.3906       
C11-C12=1.4035       C11-H45=1.0823       C12-C11=1.4035       C12-H13=1.0830       C12-C14=1.4992       C12-C31=1.7217       
H13-C12=1.0830       C14-C12=1.4992       C14-H15=1.0858       C14-C16=1.4890       C14-C31=1.4953       H15-C14=1.0858       
C16-C14=1.4890       C16-B17=1.5599       C16-C26=1.3337       B17-C16=1.5599       B17-O18=1.3684       B17-O25=1.3667       
O18-B17=1.3684       O18-C19=1.4272       C19-O18=1.4272       C19-C20=1.5270       C19-C21=1.5341       C19-C22=1.5720       
C20-C19=1.5270       C20-H46=1.0872       C20-H47=1.0867       C20-H48=1.0851       C21-C19=1.5341       C21-H49=1.0877       
C21-H50=1.0871       C21-H51=1.0858       C22-C19=1.5720       C22-C23=1.5340       C22-C24=1.5271       C22-O25=1.4270       
C23-C22=1.5340       C23-H52=1.0859       C23-H53=1.0876       C23-H54=1.0871       C24-C22=1.5271       C24-H55=1.0866       
C24-H56=1.0851       C24-H57=1.0872       O25-B17=1.3667       O25-C22=1.4270       C26-C16=1.3337       C26-C27=1.4781       
C26-H58=1.0816       C27-C10=1.5070       C27-C26=1.4781       C27-H28=1.0870       C27-C29=1.4873       H28-C27=1.0870       
C29-C10=1.8346       C29-C27=1.4873       C29-C30=1.3785       C29-H59=1.0820       C30-C29=1.3785       C30-C31=1.4073       
C30-H60=1.0829       C31-C12=1.7217       C31-C14=1.4953       C31-C30=1.4073       C31-H32=1.0832       H32-C31=1.0832       
H33-C1=1.0873        H34-C1=1.0865        H35-C1=1.0852        H36-C4=1.0877        H37-C4=1.0870        H38-C4=1.0859        
H39-C6=1.0866        H40-C6=1.0851        H41-C6=1.0871        H42-C7=1.0857        H43-C7=1.0876        H44-C7=1.0871        
H45-C11=1.0823       H46-C20=1.0872       H47-C20=1.0867       H48-C20=1.0851       H49-C21=1.0877       H50-C21=1.0871       
H51-C21=1.0858       H52-C23=1.0859       H53-C23=1.0876       H54-C23=1.0871       H55-C24=1.0866       H56-C24=1.0851       
H57-C24=1.0872       H58-C26=1.0816       H59-C29=1.0820       H60-C30=1.0829       
 C  H  Rav=1.0858 sigma=0.0018  Rmin=1.0816  Rmax=1.0877    32
 C  B  Rav=1.5611 sigma=0.0012  Rmin=1.5599  Rmax=1.5623     2
 C  C  Rav=1.5137 sigma=0.1038  Rmin=1.3337  Rmax=1.8346    23
 O  B  Rav=1.3669 sigma=0.0014  Rmin=1.3648  Rmax=1.3684     4
 O  C  Rav=1.4274 sigma=0.0003  Rmin=1.4270  Rmax=1.4278     4

 selected bond angles (degree)
 --------------------
H33-C1-C2=108.90               H34-C1-C2=110.13               H34-C1-H33=108.87              H35-C1-C2=111.32               
H35-C1-H33=108.03              H35-C1-H34=109.52              O3-C2-C1=109.44                C4-C2-C1=108.99                
C4-C2-O3=106.90                C5-C2-C1=114.92                C5-C2-O3=103.13                C5-C2-C4=112.99                
B9-O3-C2=108.93                H36-C4-C2=108.53               H37-C4-C2=110.27               H37-C4-H36=107.99              
H38-C4-C2=111.20               H38-C4-H36=108.95              H38-C4-H37=109.83              C6-C5-C2=114.94                
C7-C5-C2=113.07                C7-C5-C6=109.11                O8-C5-C2=103.18                O8-C5-C6=109.25                
O8-C5-C7=106.77                H39-C6-C5=110.39               H40-C6-C5=111.14               H40-C6-H39=109.58              
H41-C6-C5=108.79               H41-C6-H39=108.90              H41-C6-H40=107.98              H42-C7-C5=111.24               
H43-C7-C5=108.41               H43-C7-H42=109.03              H44-C7-C5=110.31               H44-C7-H42=109.87              
H44-C7-H43=107.90              B9-O8-C5=108.98                O8-B9-O3=112.21                C10-B9-O3=123.84               
C10-B9-O8=123.94               C11-C10-B9=118.04              C27-C10-B9=116.57              C27-C10-C11=124.67             
C29-C10-B9=113.86              C29-C10-C11=110.26             C29-C10-C27= 51.73             

 selected dihedral angles (degree)
 ---------------------------------
O3-C2-C1-H33=294.91           O3-C2-C1-H34=175.59           O3-C2-C1-H35= 53.91           C4-C2-C1-H33= 51.49           
C4-C2-C1-H34=292.17           C4-C2-C1-H35=170.49           C5-C2-C1-H33=179.46           C5-C2-C1-H34= 60.14           
C5-C2-C1-H35=298.46           B9-O3-C2-C1=221.67            B9-O3-C2-C4=103.77            B9-O3-C2-C5=344.43            
H36-C4-C2-C1=300.14           H36-C4-C2-O3= 58.33           H36-C4-C2-C5=171.09           H37-C4-C2-C1=182.05           
H37-C4-C2-O3=300.24           H37-C4-C2-C5= 52.99           H38-C4-C2-C1= 59.97           H38-C4-C2-O3=178.16           
H38-C4-C2-C5=290.92           C6-C5-C2-C1=256.47            C6-C5-C2-O3=137.45            C6-C5-C2-C4= 22.41            
C7-C5-C2-C1= 22.67            C7-C5-C2-O3=263.65            C7-C5-C2-C4=148.61            O8-C5-C2-C1=137.63            
O8-C5-C2-O3= 18.60            O8-C5-C2-C4=263.56            H39-C6-C5-C2= 60.32           H39-C6-C5-C7=292.11           
H39-C6-C5-O8=175.72           H40-C6-C5-C2=298.52           H40-C6-C5-C7=170.30           H40-C6-C5-O8= 53.91           
H41-C6-C5-C2=179.76           H41-C6-C5-C7= 51.54           H41-C6-C5-O8=295.15           H42-C7-C5-C2=290.92           
H42-C7-C5-C6= 60.18           H42-C7-C5-O8=178.14           H43-C7-C5-C2=171.05           H43-C7-C5-C6=300.30           
H43-C7-C5-O8= 58.26           H44-C7-C5-C2= 53.10           H44-C7-C5-C6=182.36           H44-C7-C5-O8=300.32           
B9-O8-C5-C2=344.61            B9-O8-C5-C6=221.89            B9-O8-C5-C7=104.02            O8-B9-O3-C2=  6.80            
C10-B9-O3-C2=187.15           O3-B9-O8-C5=  6.45            C10-B9-O8-C5=186.10           C11-C10-B9-O3=183.36          
C11-C10-B9-O8=  3.75          C27-C10-B9-O3= 12.60          C27-C10-B9-O8=192.99          C29-C10-B9-O3=315.01          
C29-C10-B9-O8=135.40          
           -------------------------------------------------
          |                Final Singlepoint                |
           -------------------------------------------------

          ...................................................
          :                      SETUP                      :
          :.................................................:
          :  # basis functions                 144          :
          :  # atomic orbitals                 144          :
          :  # shells                           88          :
          :  # electrons                       150          :
          :  max. iterations                   250          :
          :  Hamiltonian                  GFN2-xTB          :
          :  restarted?                      false          :
          :  GBSA solvation                  false          :
          :  PC potential                    false          :
          :  electronic temp.          300.0000000     K    :
          :  accuracy                    1.0000000          :
          :  -> integral cutoff          0.2500000E+02      :
          :  -> integral neglect         0.1000000E-07      :
          :  -> SCF convergence          0.1000000E-05 Eh   :
          :  -> wf. convergence          0.1000000E-03 e    :
          :  Broyden damping             0.4000000          :
          ...................................................

 iter      E             dE          RMSdq      gap      omega  full diag
   1    -83.3753217 -0.833753E+02  0.280E-05    2.79       0.0  T
   2    -83.3753217 -0.262901E-11  0.173E-05    2.79     748.1  T
   3    -83.3753217  0.227374E-11  0.113E-05    2.79    1147.0  T

   *** convergence criteria satisfied after 3 iterations ***

         #    Occupation            Energy/Eh            Energy/eV
      -------------------------------------------------------------
         1        2.0000           -0.6907417             -18.7960
       ...           ...                  ...                  ...
        69        2.0000           -0.4079873             -11.1019
        70        2.0000           -0.3996866             -10.8760
        71        2.0000           -0.3974158             -10.8142
        72        2.0000           -0.3955020             -10.7622
        73        2.0000           -0.3803395             -10.3496
        74        2.0000           -0.3665364              -9.9740
        75        2.0000           -0.3272277              -8.9043 (HOMO)
        76                         -0.2245780              -6.1111 (LUMO)
        77                         -0.2105902              -5.7305
        78                         -0.1644950              -4.4761
        79                         -0.1054496              -2.8694
        80                         -0.0856041              -2.3294
       ...                                ...                  ...
       144                          0.6966747              18.9575
      -------------------------------------------------------------
                  HL-Gap            0.1026497 Eh            2.7932 eV
             Fermi-level           -0.2759029 Eh           -7.5077 eV

 SCC (total)                   0 d,  0 h,  0 min,  0.043 sec
 SCC setup                      ...        0 min,  0.000 sec (  0.528%)
 Dispersion                     ...        0 min,  0.000 sec (  0.887%)
 classical contributions        ...        0 min,  0.000 sec (  0.402%)
 integral evaluation            ...        0 min,  0.006 sec ( 13.947%)
 iterations                     ...        0 min,  0.008 sec ( 19.441%)
 molecular gradient             ...        0 min,  0.028 sec ( 63.969%)
 printout                       ...        0 min,  0.000 sec (  0.818%)

         :::::::::::::::::::::::::::::::::::::::::::::::::::::
         ::                     SUMMARY                     ::
         :::::::::::::::::::::::::::::::::::::::::::::::::::::
         :: total energy             -82.299928004598 Eh    ::
         :: gradient norm              0.000655448682 Eh/a0 ::
         :: HOMO-LUMO gap              2.793240747791 eV    ::
         ::.................................................::
         :: SCC energy               -83.375321715143 Eh    ::
         :: -> isotropic ES            0.148085310300 Eh    ::
         :: -> anisotropic ES          0.011223471573 Eh    ::
         :: -> anisotropic XC          0.025997747602 Eh    ::
         :: -> dispersion             -0.060876073561 Eh    ::
         :: repulsion energy           1.074744020236 Eh    ::
         :: add. restraining           0.000013475141 Eh    ::
         :: total charge               0.000000000000 e     ::
         :::::::::::::::::::::::::::::::::::::::::::::::::::::

           -------------------------------------------------
          |                Property Printout                |
           -------------------------------------------------

    * Orbital Energies and Occupations

         #    Occupation            Energy/Eh            Energy/eV
      -------------------------------------------------------------
         1        2.0000           -0.6907417             -18.7960
       ...           ...                  ...                  ...
        63        2.0000           -0.4367047             -11.8833
        64        2.0000           -0.4341916             -11.8150
        65        2.0000           -0.4306992             -11.7199
        66        2.0000           -0.4221670             -11.4877
        67        2.0000           -0.4192037             -11.4071
        68        2.0000           -0.4143168             -11.2741
        69        2.0000           -0.4079873             -11.1019
        70        2.0000           -0.3996866             -10.8760
        71        2.0000           -0.3974158             -10.8142
        72        2.0000           -0.3955020             -10.7622
        73        2.0000           -0.3803395             -10.3496
        74        2.0000           -0.3665364              -9.9740
        75        2.0000           -0.3272277              -8.9043 (HOMO)
        76                         -0.2245780              -6.1111 (LUMO)
        77                         -0.2105902              -5.7305
        78                         -0.1644950              -4.4761
        79                         -0.1054496              -2.8694
        80                         -0.0856041              -2.3294
        81                         -0.0217674              -0.5923
        82                          0.0057060               0.1553
        83                          0.0098128               0.2670
        84                          0.0263487               0.7170
        85                          0.0294751               0.8021
        86                          0.0560761               1.5259
       ...                                ...                  ...
       144                          0.6966747              18.9575
      -------------------------------------------------------------
                  HL-Gap            0.1026497 Eh            2.7932 eV
             Fermi-level           -0.2759029 Eh           -7.5077 eV

     #   Z          covCN         q      C6AA      α(0)
     1   6 C        3.755    -0.117    22.796     6.808
     2   6 C        3.857     0.129    18.449     6.109
     3   8 O        1.638    -0.375    20.377     6.093
     4   6 C        3.755    -0.116    22.783     6.806
     5   6 C        3.859     0.129    18.452     6.109
     6   6 C        3.755    -0.118    22.812     6.810
     7   6 C        3.755    -0.116    22.776     6.805
     8   8 O        1.638    -0.371    20.307     6.083
     9   5 B        2.657     0.437    15.513     6.633
    10   6 C        3.657    -0.063    22.013     6.734
    11   6 C        2.892    -0.060    29.499     8.905
    12   6 C        3.800    -0.011    20.773     6.489
    13   1 H        0.925     0.030     2.593     2.518
    14   6 C        3.865    -0.018    20.854     6.494
    15   1 H        0.925     0.043     2.408     2.427
    16   6 C        2.863    -0.084    30.085     8.991
    17   5 B        2.662     0.432    15.553     6.638
    18   8 O        1.638    -0.373    20.335     6.087
    19   6 C        3.860     0.129    18.454     6.109
    20   6 C        3.755    -0.117    22.798     6.808
    21   6 C        3.755    -0.116    22.778     6.805
    22   6 C        3.860     0.129    18.455     6.109
    23   6 C        3.755    -0.116    22.784     6.806
    24   6 C        3.755    -0.117    22.805     6.809
    25   8 O        1.638    -0.371    20.303     6.082
    26   6 C        2.896    -0.027    28.664     8.778
    27   6 C        3.864    -0.016    20.815     6.488
    28   1 H        0.925     0.043     2.413     2.429
    29   6 C        3.686    -0.010    20.957     6.554
    30   6 C        2.888    -0.067    29.664     8.929
    31   6 C        3.803    -0.009    20.730     6.482
    32   1 H        0.925     0.030     2.593     2.518
    33   1 H        0.925     0.055     2.262     2.352
    34   1 H        0.925     0.040     2.447     2.446
    35   1 H        0.925     0.051     2.303     2.373
    36   1 H        0.925     0.053     2.288     2.365
    37   1 H        0.925     0.044     2.395     2.420
    38   1 H        0.925     0.043     2.412     2.429
    39   1 H        0.925     0.040     2.442     2.444
    40   1 H        0.925     0.052     2.289     2.366
    41   1 H        0.925     0.055     2.257     2.349
    42   1 H        0.925     0.043     2.408     2.427
    43   1 H        0.925     0.053     2.284     2.363
    44   1 H        0.925     0.043     2.403     2.424
    45   1 H        0.925     0.029     2.598     2.520
    46   1 H        0.925     0.054     2.271     2.356
    47   1 H        0.925     0.040     2.454     2.450
    48   1 H        0.925     0.052     2.295     2.369
    49   1 H        0.925     0.052     2.296     2.370
    50   1 H        0.925     0.044     2.399     2.422
    51   1 H        0.925     0.042     2.419     2.432
    52   1 H        0.925     0.043     2.416     2.430
    53   1 H        0.925     0.052     2.290     2.366
    54   1 H        0.925     0.044     2.397     2.421
    55   1 H        0.925     0.040     2.452     2.449
    56   1 H        0.925     0.052     2.294     2.369
    57   1 H        0.925     0.054     2.265     2.353
    58   1 H        0.925     0.038     2.478     2.462
    59   1 H        0.925     0.031     2.565     2.505
    60   1 H        0.925     0.017     2.777     2.606

 Mol. C6AA /au·bohr⁶  :      32280.805899
 Mol. C8AA /au·bohr⁸  :     745954.899118
 Mol. α(0) /au        :        268.885272


Wiberg/Mayer (AO) data.
largest (>0.10) Wiberg bond orders for each atom

 ---------------------------------------------------------------------------
     #   Z sym  total        # sym  WBO       # sym  WBO       # sym  WBO
 ---------------------------------------------------------------------------
     1   6 C    3.994 --     2 C    0.997    34 H    0.984    33 H    0.982
                            35 H    0.982
     2   6 C    3.942 --     1 C    0.997     4 C    0.991     3 O    0.952
                             5 C    0.936
     3   8 O    2.228 --     9 B    1.127     2 C    0.952
     4   6 C    3.994 --     2 C    0.991    38 H    0.984    37 H    0.984
                            36 H    0.983
     5   6 C    3.941 --     6 C    0.997     7 C    0.991     8 O    0.951
                             2 C    0.936
     6   6 C    3.994 --     5 C    0.997    39 H    0.984    41 H    0.982
                            40 H    0.982
     7   6 C    3.995 --     5 C    0.991    42 H    0.984    44 H    0.984
                            43 H    0.983
     8   8 O    2.237 --     9 B    1.134     5 C    0.951
     9   5 B    3.379 --     8 O    1.134     3 O    1.127    10 C    0.999
    10   6 C    3.943 --    11 C    1.429     9 B    0.999    27 C    0.907
                            29 C    0.415
    11   6 C    3.981 --    10 C    1.429    12 C    1.326    45 H    0.964
                            30 C    0.145
    12   6 C    3.953 --    11 C    1.326    13 H    0.973    14 C    0.924
                            31 C    0.589
    13   1 H    0.999 --    12 C    0.973
    14   6 C    3.963 --    16 C    1.014    15 H    0.968    31 C    0.935
                            12 C    0.924
    15   1 H    0.998 --    14 C    0.968
    16   6 C    3.978 --    26 C    1.830    14 C    1.014    17 B    0.999
    17   5 B    3.376 --    25 O    1.131    18 O    1.127    16 C    0.999
    18   8 O    2.232 --    17 B    1.127    19 C    0.953
    19   6 C    3.943 --    20 C    0.997    21 C    0.991    18 O    0.953
                            22 C    0.937
    20   6 C    3.994 --    19 C    0.997    47 H    0.985    46 H    0.983
                            48 H    0.982
    21   6 C    3.994 --    19 C    0.991    51 H    0.984    50 H    0.984
                            49 H    0.983
    22   6 C    3.942 --    24 C    0.996    23 C    0.991    25 O    0.953
                            19 C    0.937
    23   6 C    3.995 --    22 C    0.991    52 H    0.984    54 H    0.984
                            53 H    0.983
    24   6 C    3.994 --    22 C    0.996    55 H    0.985    57 H    0.983
                            56 H    0.982
    25   8 O    2.234 --    17 B    1.131    22 C    0.953
    26   6 C    3.988 --    16 C    1.830    27 C    1.030    58 H    0.966
    27   6 C    3.972 --    26 C    1.030    28 H    0.968    29 C    0.943
                            10 C    0.907
    28   1 H    0.998 --    27 C    0.968
    29   6 C    3.959 --    30 C    1.469    59 H    0.971    27 C    0.943
                            10 C    0.415
    30   6 C    3.973 --    29 C    1.469    31 C    1.305    60 H    0.966
                            11 C    0.145
    31   6 C    3.949 --    30 C    1.305    32 H    0.973    14 C    0.935
                            12 C    0.589
    32   1 H    0.999 --    31 C    0.973
    33   1 H    0.997 --     1 C    0.982
    34   1 H    0.998 --     1 C    0.984
    35   1 H    0.997 --     1 C    0.982
    36   1 H    0.997 --     4 C    0.983
    37   1 H    0.998 --     4 C    0.984
    38   1 H    0.998 --     4 C    0.984
    39   1 H    0.998 --     6 C    0.984
    40   1 H    0.997 --     6 C    0.982
    41   1 H    0.997 --     6 C    0.982
    42   1 H    0.998 --     7 C    0.984
    43   1 H    0.997 --     7 C    0.983
    44   1 H    0.998 --     7 C    0.984
    45   1 H    0.999 --    11 C    0.964
    46   1 H    0.997 --    20 C    0.983
    47   1 H    0.998 --    20 C    0.985
    48   1 H    0.997 --    20 C    0.982
    49   1 H    0.997 --    21 C    0.983
    50   1 H    0.998 --    21 C    0.984
    51   1 H    0.998 --    21 C    0.984
    52   1 H    0.998 --    23 C    0.984
    53   1 H    0.997 --    23 C    0.983
    54   1 H    0.998 --    23 C    0.984
    55   1 H    0.998 --    24 C    0.985
    56   1 H    0.997 --    24 C    0.982
    57   1 H    0.997 --    24 C    0.983
    58   1 H    0.998 --    26 C    0.966
    59   1 H    0.999 --    29 C    0.971
    60   1 H    0.999 --    30 C    0.966
 ---------------------------------------------------------------------------

Topologies differ in total number of bonds
Writing topology from bond orders to xtbtopo.mol

molecular dipole:
                 x           y           z       tot (Debye)
 q only:       -0.246      -0.503       0.042
   full:       -0.122      -0.571      -0.034       1.488
molecular quadrupole (traceless):
                xx          xy          yy          xz          yz          zz
 q only:      -47.863      17.971      60.381     -27.349     -24.859     -12.518
  q+dip:      -47.759       7.493      68.785     -20.495     -19.123     -21.026
   full:      -48.624       6.198      70.566     -21.681     -20.446     -21.941

           -------------------------------------------------
          |                Geometry Summary                 |
           -------------------------------------------------

      molecular mass/u    :      382.1099696
   center of mass at/Å    :        2.9440113     -35.9336763      21.8357494
  moments of inertia/u·Å² :        0.1201835E+04   0.6812778E+04   0.7146590E+04
rotational constants/cm⁻¹ :        0.1402657E-01   0.2474414E-02   0.2358836E-02

 * 60 selected distances

     #   Z          #   Z                                           value/Å
     1   6 C        2   6 C                                       1.5272423
     2   6 C        3   8 O                                       1.4274206
     2   6 C        4   6 C                                       1.5339669
     5   6 C        6   6 C                                       1.5271738
     5   6 C        7   6 C                                       1.5337035
     5   6 C        8   8 O                                       1.4278148
     3   8 O        9   5 B                                       1.3677644
     8   8 O        9   5 B                                       1.3647779
     9   5 B       10   6 C                                       1.5623004 (max)
    10   6 C       11   6 C                                       1.3905521
    11   6 C       12   6 C                                       1.4034741
    12   6 C       13   1 H                                       1.0830076
    12   6 C       14   6 C                                       1.4992346
    14   6 C       15   1 H                                       1.0858371
    16   6 C       17   5 B                                       1.5599087
    17   5 B       18   8 O                                       1.3683537
    18   8 O       19   6 C                                       1.4272000
    19   6 C       20   6 C                                       1.5269580
    19   6 C       21   6 C                                       1.5341091
    22   6 C       23   6 C                                       1.5340135
    22   6 C       24   6 C                                       1.5271167
    17   5 B       25   8 O                                       1.3666819
    22   6 C       25   8 O                                       1.4270385
    16   6 C       26   6 C                                       1.3337482
    10   6 C       27   6 C                                       1.5069749
    26   6 C       27   6 C                                       1.4780900
    27   6 C       28   1 H                                       1.0869671
    27   6 C       29   6 C                                       1.4873117
    29   6 C       30   6 C                                       1.3785215
    14   6 C       31   6 C                                       1.4953434
    30   6 C       31   6 C                                       1.4072852
    31   6 C       32   1 H                                       1.0831754
     1   6 C       33   1 H                                       1.0872685
     1   6 C       34   1 H                                       1.0865294
     1   6 C       35   1 H                                       1.0851970
     4   6 C       36   1 H                                       1.0876500
     4   6 C       37   1 H                                       1.0869944
     4   6 C       38   1 H                                       1.0858518
     6   6 C       39   1 H                                       1.0865893
     6   6 C       40   1 H                                       1.0850597
     6   6 C       41   1 H                                       1.0870795
     7   6 C       42   1 H                                       1.0856935
     7   6 C       43   1 H                                       1.0875656
     7   6 C       44   1 H                                       1.0871110
    11   6 C       45   1 H                                       1.0823372
    20   6 C       46   1 H                                       1.0872369
    20   6 C       47   1 H                                       1.0866764
    20   6 C       48   1 H                                       1.0851441
    21   6 C       49   1 H                                       1.0876555
    21   6 C       50   1 H                                       1.0871335
    21   6 C       51   1 H                                       1.0858467
    23   6 C       52   1 H                                       1.0858726
    23   6 C       53   1 H                                       1.0875521
    23   6 C       54   1 H                                       1.0870876
    24   6 C       55   1 H                                       1.0866373
    24   6 C       56   1 H                                       1.0851209
    24   6 C       57   1 H                                       1.0871524
    26   6 C       58   1 H                                       1.0815698 (min)
    29   6 C       59   1 H                                       1.0819876
    30   6 C       60   1 H                                       1.0828924

 * 5 distinct bonds (by element types)

   Z      Z             #   av. dist./Å        max./Å        min./Å
   1 H    6 C          32     1.0857963     1.0876555     1.0815698
   5 B    6 C           2     1.5611046     1.5623004     1.5599087
   6 C    6 C          18     1.4791566     1.5341091     1.3337482
   5 B    8 O           4     1.3668945     1.3683537     1.3647779
   6 C    8 O           4     1.4273685     1.4278148     1.4270385


optimized geometry written to: xtbopt.xyz


           -------------------------------------------------
          | TOTAL ENERGY              -82.299928004598 Eh   |
          | GRADIENT NORM               0.000655448682 Eh/α |
          | HOMO-LUMO GAP               2.793240747791 eV   |
           -------------------------------------------------

------------------------------------------------------------------------
 * finished run on 2022/07/09 at 18:33:19.581     
------------------------------------------------------------------------
 total:
 * wall-time:     0 d,  0 h,  0 min,  1.269 sec
 *  cpu-time:     0 d,  0 h,  0 min,  1.265 sec
 * ratio c/w:     0.997 speedup
 SCF:
 * wall-time:     0 d,  0 h,  0 min,  0.070 sec
 *  cpu-time:     0 d,  0 h,  0 min,  0.069 sec
 * ratio c/w:     0.982 speedup
 ANC optimizer:
 * wall-time:     0 d,  0 h,  0 min,  1.187 sec
 *  cpu-time:     0 d,  0 h,  0 min,  1.185 sec
 * ratio c/w:     0.998 speedup

