      -----------------------------------------------------------      
     |                   =====================                   |     
     |                           x T B                           |     
     |                   =====================                   |     
     |                         S. Grimme                         |     
     |          Mulliken Center for Theoretical Chemistry        |     
     |                    University of Bonn                     |     
      -----------------------------------------------------------      

   * xtb version 6.5.0 (homebrew) compiled by 'nhattrup@GPGGRP-SHANNON.CHEME.CMU.EDU' on 

   xtb is free software: you can redistribute it and/or modify it under
   the terms of the GNU Lesser General Public License as published by
   the Free Software Foundation, either version 3 of the License, or
   (at your option) any later version.
   
   xtb is distributed in the hope that it will be useful,
   but WITHOUT ANY WARRANTY; without even the implied warranty of
   MERCHANTABILITY or FITNESS FOR A PARTICULAR PURPOSE.  See the
   GNU Lesser General Public License for more details.
   
   Cite this work as:
   * C. Bannwarth, E. Caldeweyher, S. Ehlert, A. Hansen, P. Pracht,
     J. Seibert, S. Spicher, S. Grimme, WIREs Comput. Mol. Sci., 2020, 11,
     e01493. DOI: 10.1002/wcms.1493
   
   for GFN2-xTB:
   * C. Bannwarth, S. Ehlert and S. Grimme., J. Chem. Theory Comput., 2019,
     15, 1652-1671. DOI: 10.1021/acs.jctc.8b01176
   for GFN1-xTB:
   * S. Grimme, C. Bannwarth, P. Shushkov, J. Chem. Theory Comput., 2017,
     13, 1989-2009. DOI: 10.1021/acs.jctc.7b00118
   for GFN0-xTB:
   * P. Pracht, E. Caldeweyher, S. Ehlert, S. Grimme, ChemRxiv, 2019, preprint.
     DOI: 10.26434/chemrxiv.8326202.v1
   for GFN-FF:
   * S. Spicher and S. Grimme, Angew. Chem. Int. Ed., 2020, 59, 15665-15673.
     DOI: 10.1002/anie.202004239
   
   for ALPB and GBSA implicit solvation:
   * S. Ehlert, M. Stahn, S. Spicher, S. Grimme, J. Chem. Theory Comput.,
     2021, 17, 4250-4261. DOI: 10.1021/acs.jctc.1c00471
   
   for DFT-D4:
   * E. Caldeweyher, C. Bannwarth and S. Grimme, J. Chem. Phys., 2017,
     147, 034112. DOI: 10.1063/1.4993215
   * E. Caldeweyher, S. Ehlert, A. Hansen, H. Neugebauer, S. Spicher,
     C. Bannwarth and S. Grimme, J. Chem. Phys., 2019, 150, 154122.
     DOI: 10.1063/1.5090222
   * E. Caldeweyher, J.-M. Mewes, S. Ehlert and S. Grimme, Phys. Chem. Chem. Phys.
     2020, 22, 8499-8512. DOI: 10.1039/D0CP00502A
   
   for sTDA-xTB:
   * S. Grimme and C. Bannwarth, J. Chem. Phys., 2016, 145, 054103.
     DOI: 10.1063/1.4959605
   
   in the mass-spec context:
   * V. Asgeirsson, C. Bauer and S. Grimme, Chem. Sci., 2017, 8, 4879.
     DOI: 10.1039/c7sc00601b
   * J. Koopman and S. Grimme, ACS Omega 2019, 4, 12, 15120-15133.
     DOI: 10.1021/acsomega.9b02011
   
   for metadynamics refer to:
   * S. Grimme, J. Chem. Theory Comput., 2019, 155, 2847-2862
     DOI: 10.1021/acs.jctc.9b00143
   
   for SPH calculations refer to:
   * S. Spicher and S. Grimme, J. Chem. Theory Comput., 2021, 17, 1701-1714
     DOI: 10.1021/acs.jctc.0c01306
   
   with help from (in alphabetical order)
   P. Atkinson, C. Bannwarth, F. Bohle, G. Brandenburg, E. Caldeweyher
   M. Checinski, S. Dohm, S. Ehlert, S. Ehrlich, I. Gerasimov, C. Hölzer
   A. Katbashev, J. Koopman, C. Lavigne, S. Lehtola, F. März, M. Müller,
   F. Musil, H. Neugebauer, J. Pisarek, C. Plett, P. Pracht, F. Pultar,
   J. Seibert, P. Shushkov, S. Spicher, M. Stahn, M. Steiner, T. Strunk,
   J. Stückrath, T. Rose, and J. Unsleber
   
 * started run on 2022/07/09 at 18:33:25.886     

           -------------------------------------------------
          |                Calculation Setup                |
           -------------------------------------------------

          program call               : /opt/homebrew/bin/xtb bvl_bpin2_scan_5-5_xtb.xyz --chrg 0 --uhf 0 --opt --input xcontrol_bvl_bpin2_scan_5-5_xtb
          coordinate file            : bvl_bpin2_scan_5-5_xtb.xyz
          omp threads                :                     1

   ID    Z sym.   atoms
    1    6 C      1, 2, 4-7, 10-12, 14, 16, 19-24, 26, 27, 29-31
    2    8 O      3, 8, 18, 25
    3    5 B      9, 17
    4    1 H      13, 15, 28, 32-60
constraining bond 12 31 to    2.0556000 Å, actual value:    1.9425493 Å
constraining bond 10 29 to    1.9444000 Å, actual value:    2.0552952 Å

           -------------------------------------------------
          |                 G F N 2 - x T B                 |
           -------------------------------------------------

        Reference                      10.1021/acs.jctc.8b01176
      * Hamiltonian:
        H0-scaling (s, p, d)           1.850000    2.230000    2.230000
        zeta-weighting                 0.500000
      * Dispersion:
        s8                             2.700000
        a1                             0.520000
        a2                             5.000000
        s9                             5.000000
      * Repulsion:
        kExp                           1.500000    1.000000
        rExp                           1.000000
      * Coulomb:
        alpha                          2.000000
        third order                    shell-resolved
        anisotropic                    true
        a3                             3.000000
        a5                             4.000000
        cn-shift                       1.200000
        cn-exp                         4.000000
        max-rad                        5.000000


          ...................................................
          :                      SETUP                      :
          :.................................................:
          :  # basis functions                 144          :
          :  # atomic orbitals                 144          :
          :  # shells                           88          :
          :  # electrons                       150          :
          :  max. iterations                   250          :
          :  Hamiltonian                  GFN2-xTB          :
          :  restarted?                      false          :
          :  GBSA solvation                  false          :
          :  PC potential                    false          :
          :  electronic temp.          300.0000000     K    :
          :  accuracy                    1.0000000          :
          :  -> integral cutoff          0.2500000E+02      :
          :  -> integral neglect         0.1000000E-07      :
          :  -> SCF convergence          0.1000000E-05 Eh   :
          :  -> wf. convergence          0.1000000E-03 e    :
          :  Broyden damping             0.4000000          :
          ...................................................

 iter      E             dE          RMSdq      gap      omega  full diag
   1    -82.9465818 -0.829466E+02  0.469E+00    3.22       0.0  T
   2    -83.3280821 -0.381500E+00  0.288E+00    2.94       1.0  T
   3    -83.3407132 -0.126311E-01  0.139E+00    3.20       1.0  T
   4    -83.3632164 -0.225032E-01  0.451E-01    3.12       1.0  T
   5    -83.3757332 -0.125168E-01  0.181E-01    3.15       1.0  T
   6    -83.3764228 -0.689626E-03  0.109E-01    3.16       1.0  T
   7    -83.3766461 -0.223337E-03  0.298E-02    3.15       1.0  T
   8    -83.3766697 -0.235943E-04  0.138E-02    3.15       1.0  T
   9    -83.3766771 -0.739185E-05  0.561E-03    3.15       2.3  T
  10    -83.3766779 -0.759544E-06  0.255E-03    3.15       5.1  T
  11    -83.3766780 -0.912620E-07  0.664E-04    3.15      19.4  T
  12    -83.3766780 -0.189770E-07  0.302E-04    3.15      42.7  T

   *** convergence criteria satisfied after 12 iterations ***

         #    Occupation            Energy/Eh            Energy/eV
      -------------------------------------------------------------
         1        2.0000           -0.6875640             -18.7096
       ...           ...                  ...                  ...
        69        2.0000           -0.4054698             -11.0334
        70        2.0000           -0.3971737             -10.8076
        71        2.0000           -0.3968768             -10.7996
        72        2.0000           -0.3934397             -10.7060
        73        2.0000           -0.3860721             -10.5056
        74        2.0000           -0.3495188              -9.5109
        75        2.0000           -0.3467731              -9.4362 (HOMO)
        76                         -0.2308944              -6.2830 (LUMO)
        77                         -0.2140978              -5.8259
        78                         -0.1897261              -5.1627
        79                         -0.1228721              -3.3435
        80                         -0.0976254              -2.6565
       ...                                ...                  ...
       144                          0.6903019              18.7841
      -------------------------------------------------------------
                  HL-Gap            0.1158787 Eh            3.1532 eV
             Fermi-level           -0.2888337 Eh           -7.8596 eV

 SCC (total)                   0 d,  0 h,  0 min,  0.068 sec
 SCC setup                      ...        0 min,  0.000 sec (  0.354%)
 Dispersion                     ...        0 min,  0.000 sec (  0.602%)
 classical contributions        ...        0 min,  0.000 sec (  0.258%)
 integral evaluation            ...        0 min,  0.006 sec (  8.948%)
 iterations                     ...        0 min,  0.033 sec ( 48.612%)
 molecular gradient             ...        0 min,  0.028 sec ( 40.677%)
 printout                       ...        0 min,  0.000 sec (  0.541%)

         :::::::::::::::::::::::::::::::::::::::::::::::::::::
         ::                     SUMMARY                     ::
         :::::::::::::::::::::::::::::::::::::::::::::::::::::
         :: total energy             -82.118512533117 Eh    ::
         :: gradient norm              1.681330439957 Eh/a0 ::
         :: HOMO-LUMO gap              3.153220278018 eV    ::
         ::.................................................::
         :: SCC energy               -83.376677997512 Eh    ::
         :: -> isotropic ES            0.147788417214 Eh    ::
         :: -> anisotropic ES          0.011908761768 Eh    ::
         :: -> anisotropic XC          0.026806417010 Eh    ::
         :: -> dispersion             -0.061966327652 Eh    ::
         :: repulsion energy           1.078381020176 Eh    ::
         :: add. restraining           0.179111771361 Eh    ::
         :: total charge               0.000000000000 e     ::
         :::::::::::::::::::::::::::::::::::::::::::::::::::::

      ----------------------------------------------------------- 
     |                   =====================                   |
     |                        A N C O P T                        |
     |                   =====================                   |
     |               Approximate Normal Coordinate               |
     |                Rational Function Optimizer                |
      ----------------------------------------------------------- 

          ...................................................
          :                      SETUP                      :
          :.................................................:
          :   optimization level            normal          :
          :   max. optcycles                   200          :
          :   ANC micro-cycles                  20          :
          :   degrees of freedom               174          :
          :.................................................:
          :   RF solver                   davidson          :
          :   write xtbopt.log                true          :
          :   linear?                        false          :
          :   energy convergence         0.5000000E-05 Eh   :
          :   grad. convergence          0.1000000E-02 Eh/α :
          :   maximium RF displ.         1.0000000          :
          :   Hlow (freq-cutoff)         0.1000000E-01      :
          :   Hmax (freq-cutoff)         5.0000000          :
          :   S6 in model hess.         20.0000000          :
          ...................................................

generating ANC from model Hessian ...
Using Lindh-Hessian (1995)
 Shifting diagonal of input Hessian by   0.21062714645269759     
 Lowest  eigenvalues of input Hessian
    0.010000    0.138937    0.000000    0.000000    0.000000    0.000000
    0.000000    0.000000    0.210739    0.210768    0.210921    0.212271
    0.212510    0.213436    0.213913    0.213980    0.215189    0.215783
 Highest eigenvalues
    1.926862    2.077827    2.117140    2.222003    8.857956    8.944321


........................................................................
.............................. CYCLE    1 ..............................
........................................................................
   1    -83.3766780 -0.833767E+02  0.156E-04    3.15       0.0  T
   2    -83.3766780 -0.130683E-08  0.992E-05    3.15     130.1  T
   3    -83.3766780 -0.555929E-09  0.376E-05    3.15     342.9  T
     SCC iter.                  ...        0 min,  0.008 sec
     gradient                   ...        0 min,  0.028 sec
 * total energy  :   -82.1185125 Eh     change       -0.1203887E-08 Eh
   gradient norm :     1.6813286 Eh/α   predicted     0.0000000E+00 (-100.00%)
   displ. norm   :     0.3110958 α      lambda       -0.5166914E+00
   maximum displ.:     0.2754242 α      in ANC's #174, #173, #127, ...

........................................................................
.............................. CYCLE    2 ..............................
........................................................................
   1    -83.3694471 -0.833694E+02  0.364E-01    3.21       0.0  T
   2    -83.3698476 -0.400551E-03  0.323E-01    3.20       1.0  T
   3    -83.3718692 -0.202159E-02  0.165E-01    3.21       1.0  T
   4    -83.3719883 -0.119073E-03  0.523E-02    3.20       1.0  T
   5    -83.3721354 -0.147162E-03  0.102E-02    3.20       1.3  T
   6    -83.3721389 -0.345275E-05  0.481E-03    3.20       2.7  T
   7    -83.3721392 -0.283507E-06  0.170E-03    3.20       7.6  T
   8    -83.3721392 -0.507850E-07  0.672E-04    3.20      19.2  T
   9    -83.3721392 -0.909886E-08  0.337E-04    3.20      38.4  T
     SCC iter.                  ...        0 min,  0.025 sec
     gradient                   ...        0 min,  0.028 sec
 * total energy  :   -82.2543813 Eh     change       -0.1358688E+00 Eh
   gradient norm :     0.8101912 Eh/α   predicted    -0.2836989E+00 ( 108.80%)
   displ. norm   :     0.1046681 α      lambda       -0.8061659E-01
   maximum displ.:     0.0885504 α      in ANC's #174, #173, #170, ...

........................................................................
.............................. CYCLE    3 ..............................
........................................................................
   1    -83.3737812 -0.833738E+02  0.117E-01    3.16       0.0  T
   2    -83.3738556 -0.744241E-04  0.110E-01    3.17       1.0  T
   3    -83.3741943 -0.338691E-03  0.566E-02    3.17       1.0  T
   4    -83.3741798  0.144776E-04  0.210E-02    3.17       1.0  T
   5    -83.3742023 -0.224485E-04  0.364E-03    3.17       3.5  T
   6    -83.3742028 -0.554048E-06  0.150E-03    3.17       8.6  T
   7    -83.3742029 -0.194391E-07  0.515E-04    3.17      25.1  T
   8    -83.3742029 -0.388685E-08  0.219E-04    3.17      58.9  T
     SCC iter.                  ...        0 min,  0.022 sec
     gradient                   ...        0 min,  0.028 sec
 * total energy  :   -82.2957599 Eh     change       -0.4137858E-01 Eh
   gradient norm :     0.0333148 Eh/α   predicted    -0.4075059E-01 (  -1.52%)
   displ. norm   :     0.0418973 α      lambda       -0.1017683E-02
   maximum displ.:     0.0216893 α      in ANC's #37, #127, #109, ...

........................................................................
.............................. CYCLE    4 ..............................
........................................................................
   1    -83.3745058 -0.833745E+02  0.294E-02    3.17       0.0  T
   2    -83.3745083 -0.244886E-05  0.187E-02    3.17       1.0  T
   3    -83.3745052  0.313243E-05  0.137E-02    3.17       1.0  T
   4    -83.3745141 -0.898215E-05  0.325E-03    3.17       4.0  T
   5    -83.3745147 -0.522416E-06  0.782E-04    3.17      16.5  T
   6    -83.3745147 -0.257277E-07  0.316E-04    3.17      40.9  T
     SCC iter.                  ...        0 min,  0.016 sec
     gradient                   ...        0 min,  0.028 sec
 * total energy  :   -82.2965754 Eh     change       -0.8155041E-03 Eh
   gradient norm :     0.0193169 Eh/α   predicted    -0.5097305E-03 ( -37.50%)
   displ. norm   :     0.1621543 α      lambda       -0.1462788E-02
   maximum displ.:     0.1281395 α      in ANC's #1, #37, #43, ...

........................................................................
.............................. CYCLE    5 ..............................
........................................................................
   1    -83.3734702 -0.833735E+02  0.971E-02    3.17       0.0  T
   2    -83.3734791 -0.889619E-05  0.584E-02    3.17       1.0  T
   3    -83.3734072  0.719053E-04  0.380E-02    3.17       1.0  T
   4    -83.3734954 -0.881599E-04  0.645E-03    3.17       2.0  T
   5    -83.3734976 -0.218037E-05  0.156E-03    3.17       8.3  T
   6    -83.3734976 -0.574731E-07  0.790E-04    3.17      16.3  T
   7    -83.3734976 -0.833747E-08  0.268E-04    3.17      48.1  T
     SCC iter.                  ...        0 min,  0.019 sec
     gradient                   ...        0 min,  0.028 sec
 * total energy  :   -82.2964220 Eh     change        0.1533912E-03 Eh
   gradient norm :     0.0253200 Eh/α   predicted    -0.7506832E-03 (-589.39%)
   displ. norm   :     0.3145274 α      lambda       -0.3836746E-02
   maximum displ.:     0.2644240 α      in ANC's #1, #37, #43, ...

........................................................................
.............................. CYCLE    6 ..............................
........................................................................
   1    -83.3725801 -0.833726E+02  0.186E-01    3.16       0.0  T
   2    -83.3726077 -0.275726E-04  0.111E-01    3.16       1.0  T
   3    -83.3723690  0.238693E-03  0.740E-02    3.16       1.0  T
   4    -83.3726624 -0.293411E-03  0.114E-02    3.16       1.1  T
   5    -83.3726703 -0.789868E-05  0.273E-03    3.16       4.7  T
   6    -83.3726705 -0.153682E-06  0.152E-03    3.16       8.5  T
   7    -83.3726705 -0.267679E-07  0.633E-04    3.16      20.4  T
   8    -83.3726705 -0.163326E-07  0.198E-04    3.16      65.3  T
     SCC iter.                  ...        0 min,  0.022 sec
     gradient                   ...        0 min,  0.028 sec
 * total energy  :   -82.2947201 Eh     change        0.1701901E-02 Eh
   gradient norm :     0.0536367 Eh/α   predicted    -0.2108174E-02 (-223.87%)
   displ. norm   :     0.1868771 α      lambda       -0.5372854E-02
   maximum displ.:     0.1181320 α      in ANC's #1, #37, #43, ...

........................................................................
.............................. CYCLE    7 ..............................
........................................................................
   1    -83.3754336 -0.833754E+02  0.118E-01    3.17       0.0  T
   2    -83.3754533 -0.197715E-04  0.708E-02    3.17       1.0  T
   3    -83.3753378  0.115503E-03  0.519E-02    3.17       1.0  T
   4    -83.3754953 -0.157445E-03  0.926E-03    3.17       1.4  T
   5    -83.3754998 -0.454126E-05  0.240E-03    3.17       5.4  T
   6    -83.3755000 -0.192530E-06  0.114E-03    3.17      11.4  T
   7    -83.3755000 -0.146628E-07  0.444E-04    3.17      29.1  T
   8    -83.3755000 -0.527270E-08  0.170E-04    3.17      75.9  T
     SCC iter.                  ...        0 min,  0.022 sec
     gradient                   ...        0 min,  0.028 sec
 * total energy  :   -82.2974523 Eh     change       -0.2732127E-02 Eh
   gradient norm :     0.0139154 Eh/α   predicted    -0.2781141E-02 (   1.79%)
   displ. norm   :     0.0337797 α      lambda       -0.1594090E-03
   maximum displ.:     0.0211592 α      in ANC's #1, #37, #33, ...

........................................................................
.............................. CYCLE    8 ..............................
........................................................................
   1    -83.3756902 -0.833757E+02  0.179E-02    3.17       0.0  T
   2    -83.3756903 -0.108099E-06  0.106E-02    3.17       1.2  T
   3    -83.3756897  0.605414E-06  0.386E-03    3.17       3.3  T
   4    -83.3756904 -0.692092E-06  0.453E-04    3.17      28.5  T
   5    -83.3756904 -0.975881E-08  0.205E-04    3.17      63.0  T
     SCC iter.                  ...        0 min,  0.014 sec
     gradient                   ...        0 min,  0.028 sec
 * total energy  :   -82.2975691 Eh     change       -0.1168005E-03 Eh
   gradient norm :     0.0074477 Eh/α   predicted    -0.8004172E-04 ( -31.47%)
   displ. norm   :     0.0580488 α      lambda       -0.1958737E-03
   maximum displ.:     0.0439090 α      in ANC's #37, #33, #1, ...

........................................................................
.............................. CYCLE    9 ..............................
........................................................................
   1    -83.3760060 -0.833760E+02  0.279E-02    3.16       0.0  T
   2    -83.3760062 -0.233459E-06  0.167E-02    3.16       1.0  T
   3    -83.3760047  0.144709E-05  0.424E-03    3.16       3.0  T
   4    -83.3760063 -0.159578E-05  0.788E-04    3.16      16.4  T
   5    -83.3760064 -0.268373E-07  0.365E-04    3.16      35.4  T
   6    -83.3760064 -0.240142E-08  0.196E-04    3.16      65.8  T
     SCC iter.                  ...        0 min,  0.016 sec
     gradient                   ...        0 min,  0.028 sec
 * total energy  :   -82.2977129 Eh     change       -0.1438094E-03 Eh
   gradient norm :     0.0079416 Eh/α   predicted    -0.9820602E-04 ( -31.71%)
   displ. norm   :     0.0755618 α      lambda       -0.1827257E-03
   maximum displ.:     0.0576639 α      in ANC's #37, #33, #34, ...

........................................................................
.............................. CYCLE   10 ..............................
........................................................................
   1    -83.3764580 -0.833765E+02  0.360E-02    3.16       0.0  T
   2    -83.3764584 -0.435956E-06  0.215E-02    3.16       1.0  T
   3    -83.3764547  0.369944E-05  0.731E-03    3.16       1.8  T
   4    -83.3764588 -0.409737E-05  0.102E-03    3.16      12.6  T
   5    -83.3764589 -0.385433E-07  0.512E-04    3.16      25.2  T
   6    -83.3764589 -0.602951E-08  0.257E-04    3.16      50.2  T
     SCC iter.                  ...        0 min,  0.016 sec
     gradient                   ...        0 min,  0.028 sec
 * total energy  :   -82.2978288 Eh     change       -0.1159072E-03 Eh
   gradient norm :     0.0100944 Eh/α   predicted    -0.9177859E-04 ( -20.82%)
   displ. norm   :     0.0340841 α      lambda       -0.5224155E-04
   maximum displ.:     0.0233748 α      in ANC's #37, #33, #1, ...

........................................................................
.............................. CYCLE   11 ..............................
........................................................................
   1    -83.3768114 -0.833768E+02  0.159E-02    3.16       0.0  T
   2    -83.3768115 -0.794842E-07  0.945E-03    3.16       1.4  T
   3    -83.3768111  0.342944E-06  0.272E-03    3.16       4.7  T
   4    -83.3768115 -0.392225E-06  0.317E-04    3.16      40.8  T
   5    -83.3768115 -0.212135E-08  0.189E-04    3.16      68.4  T
     SCC iter.                  ...        0 min,  0.014 sec
     gradient                   ...        0 min,  0.028 sec
 * total energy  :   -82.2978618 Eh     change       -0.3303238E-04 Eh
   gradient norm :     0.0037674 Eh/α   predicted    -0.2622650E-04 ( -20.60%)
   displ. norm   :     0.0166480 α      lambda       -0.2183550E-04
   maximum displ.:     0.0073067 α      in ANC's #1, #37, #29, ...

........................................................................
.............................. CYCLE   12 ..............................
........................................................................
   1    -83.3771993 -0.833772E+02  0.789E-03    3.16       0.0  T
   2    -83.3771994 -0.483718E-07  0.468E-03    3.16       2.8  T
   3    -83.3771992  0.182244E-06  0.194E-03    3.16       6.7  T
   4    -83.3771994 -0.213203E-06  0.199E-04    3.16      64.8  T
   5    -83.3771994 -0.146308E-08  0.118E-04    3.16     109.5  T
     SCC iter.                  ...        0 min,  0.015 sec
     gradient                   ...        0 min,  0.028 sec
 * total energy  :   -82.2978767 Eh     change       -0.1489419E-04 Eh
   gradient norm :     0.0020877 Eh/α   predicted    -0.1094701E-04 ( -26.50%)
   displ. norm   :     0.0174300 α      lambda       -0.1902733E-04
   maximum displ.:     0.0060427 α      in ANC's #29, #17, #6, ...

........................................................................
.............................. CYCLE   13 ..............................
........................................................................
   1    -83.3776115 -0.833776E+02  0.670E-03    3.16       0.0  T
   2    -83.3776116 -0.406911E-07  0.404E-03    3.16       3.2  T
   3    -83.3776114  0.180319E-06  0.182E-03    3.16       7.1  T
   4    -83.3776116 -0.197782E-06  0.336E-04    3.16      38.4  T
   5    -83.3776116 -0.524238E-08  0.111E-04    3.16     116.1  T
     SCC iter.                  ...        0 min,  0.014 sec
     gradient                   ...        0 min,  0.028 sec
 * total energy  :   -82.2978909 Eh     change       -0.1421813E-04 Eh
   gradient norm :     0.0038542 Eh/α   predicted    -0.9533963E-05 ( -32.95%)
   displ. norm   :     0.0269053 α      lambda       -0.2388998E-04
   maximum displ.:     0.0098649 α      in ANC's #29, #6, #17, ...

........................................................................
.............................. CYCLE   14 ..............................
........................................................................
   1    -83.3780425 -0.833780E+02  0.902E-03    3.15       0.0  T
   2    -83.3780426 -0.723001E-07  0.546E-03    3.15       2.4  T
   3    -83.3780423  0.335543E-06  0.270E-03    3.15       4.8  T
   4    -83.3780426 -0.378120E-06  0.403E-04    3.15      32.0  T
   5    -83.3780427 -0.736840E-08  0.161E-04    3.15      80.0  T
     SCC iter.                  ...        0 min,  0.014 sec
     gradient                   ...        0 min,  0.028 sec
 * total energy  :   -82.2979081 Eh     change       -0.1715561E-04 Eh
   gradient norm :     0.0040636 Eh/α   predicted    -0.1196524E-04 ( -30.25%)
   displ. norm   :     0.0281671 α      lambda       -0.1975480E-04
   maximum displ.:     0.0107511 α      in ANC's #29, #6, #17, ...

........................................................................
.............................. CYCLE   15 ..............................
........................................................................
   1    -83.3781951 -0.833782E+02  0.868E-03    3.15       0.0  T
   2    -83.3781952 -0.551968E-07  0.525E-03    3.15       2.5  T
   3    -83.3781949  0.280211E-06  0.266E-03    3.15       4.9  T
   4    -83.3781952 -0.324174E-06  0.342E-04    3.15      37.7  T
   5    -83.3781952 -0.509651E-08  0.176E-04    3.15      73.5  T
     SCC iter.                  ...        0 min,  0.014 sec
     gradient                   ...        0 min,  0.028 sec
 * total energy  :   -82.2979221 Eh     change       -0.1398334E-04 Eh
   gradient norm :     0.0027133 Eh/α   predicted    -0.9888737E-05 ( -29.28%)
   displ. norm   :     0.0250338 α      lambda       -0.1476626E-04
   maximum displ.:     0.0098839 α      in ANC's #29, #6, #17, ...

........................................................................
.............................. CYCLE   16 ..............................
........................................................................
   1    -83.3780756 -0.833781E+02  0.796E-03    3.15       0.0  T
   2    -83.3780756 -0.318808E-07  0.478E-03    3.15       2.7  T
   3    -83.3780755  0.139228E-06  0.188E-03    3.15       6.8  T
   4    -83.3780756 -0.161317E-06  0.206E-04    3.15      62.6  T
   5    -83.3780756 -0.894573E-09  0.120E-04    3.15     107.8  T
     SCC iter.                  ...        0 min,  0.014 sec
     gradient                   ...        0 min,  0.028 sec
 * total energy  :   -82.2979327 Eh     change       -0.1061313E-04 Eh
   gradient norm :     0.0016106 Eh/α   predicted    -0.7390882E-05 ( -30.36%)
   displ. norm   :     0.0361302 α      lambda       -0.1270056E-04
   maximum displ.:     0.0143765 α      in ANC's #29, #6, #28, ...

........................................................................
.............................. CYCLE   17 ..............................
........................................................................
   1    -83.3776710 -0.833777E+02  0.127E-02    3.15       0.0  T
   2    -83.3776711 -0.518300E-07  0.766E-03    3.15       1.7  T
   3    -83.3776708  0.238323E-06  0.215E-03    3.15       6.0  T
   4    -83.3776711 -0.266434E-06  0.356E-04    3.15      36.3  T
   5    -83.3776711 -0.346931E-08  0.191E-04    3.15      67.5  T
     SCC iter.                  ...        0 min,  0.014 sec
     gradient                   ...        0 min,  0.028 sec
 * total energy  :   -82.2979440 Eh     change       -0.1136548E-04 Eh
   gradient norm :     0.0031813 Eh/α   predicted    -0.6357614E-05 ( -44.06%)
   displ. norm   :     0.0114086 α      lambda       -0.7978703E-05
   maximum displ.:     0.0047660 α      in ANC's #28, #6, #29, ...

........................................................................
.............................. CYCLE   18 ..............................
........................................................................
   1    -83.3775505 -0.833776E+02  0.481E-03    3.15       0.0  T
   2    -83.3775505 -0.488028E-08  0.290E-03    3.15       4.5  T
   3    -83.3775505  0.419301E-07  0.900E-04    3.15      14.3  T
   4    -83.3775505 -0.458787E-07  0.126E-04    3.15     102.5  T
     SCC iter.                  ...        0 min,  0.011 sec
     gradient                   ...        0 min,  0.027 sec
 * total energy  :   -82.2979509 Eh     change       -0.6876904E-05 Eh
   gradient norm :     0.0024897 Eh/α   predicted    -0.3992477E-05 ( -41.94%)
   displ. norm   :     0.0368239 α      lambda       -0.2025249E-04
   maximum displ.:     0.0156972 α      in ANC's #28, #6, #29, ...

........................................................................
.............................. CYCLE   19 ..............................
........................................................................
   1    -83.3773474 -0.833773E+02  0.138E-02    3.16       0.0  T
   2    -83.3773475 -0.388100E-07  0.833E-03    3.16       1.6  T
   3    -83.3773472  0.303942E-06  0.223E-03    3.16       5.8  T
   4    -83.3773475 -0.330241E-06  0.387E-04    3.16      33.3  T
   5    -83.3773475 -0.579593E-08  0.204E-04    3.16      63.2  T
     SCC iter.                  ...        0 min,  0.014 sec
     gradient                   ...        0 min,  0.028 sec
 * total energy  :   -82.2979630 Eh     change       -0.1213140E-04 Eh
   gradient norm :     0.0013291 Eh/α   predicted    -0.1014623E-04 ( -16.36%)
   displ. norm   :     0.0211154 α      lambda       -0.4640173E-05
   maximum displ.:     0.0093132 α      in ANC's #6, #28, #8, ...

........................................................................
.............................. CYCLE   20 ..............................
........................................................................
   1    -83.3774264 -0.833774E+02  0.685E-03    3.16       0.0  T
   2    -83.3774264 -0.165307E-07  0.411E-03    3.16       3.1  T
   3    -83.3774263  0.741732E-07  0.111E-03    3.16      11.6  T
   4    -83.3774264 -0.820429E-07  0.189E-04    3.16      68.5  T
   5    -83.3774264 -0.127682E-08  0.902E-05    3.16     143.2  T
     SCC iter.                  ...        0 min,  0.014 sec
     gradient                   ...        0 min,  0.028 sec
 * total energy  :   -82.2979680 Eh     change       -0.5001902E-05 Eh
   gradient norm :     0.0014015 Eh/α   predicted    -0.2323407E-05 ( -53.55%)
   displ. norm   :     0.0208278 α      lambda       -0.5695765E-05
   maximum displ.:     0.0095598 α      in ANC's #6, #28, #8, ...
 * RMSD in coord.:     0.0683668 α      energy gain  -0.1794555E+00 Eh

generating ANC from model Hessian ...
Using Lindh-Hessian (1995)
 Shifting diagonal of input Hessian by    9.9004304357003872E-003
 Lowest  eigenvalues of input Hessian
    0.000000    0.000000    0.000000    0.000000    0.000000    0.000000
    0.010000    0.010037    0.010101    0.010298    0.010943    0.011750
    0.012356    0.013191    0.013221    0.013675    0.014645    0.015097
 Highest eigenvalues
    1.725664    1.883606    1.913099    1.919463    8.675943    8.732257


........................................................................
.............................. CYCLE   21 ..............................
........................................................................
   1    -83.3777007 -0.833777E+02  0.686E-03    3.16       0.0  T
   2    -83.3777007 -0.251000E-07  0.414E-03    3.16       3.1  T
   3    -83.3777006  0.170835E-06  0.176E-03    3.16       7.3  T
   4    -83.3777007 -0.188559E-06  0.229E-04    3.16      56.4  T
   5    -83.3777007 -0.177721E-08  0.890E-05    3.16     145.0  T
     SCC iter.                  ...        0 min,  0.014 sec
     gradient                   ...        0 min,  0.028 sec
 * total energy  :   -82.2979739 Eh     change       -0.5817596E-05 Eh
   gradient norm :     0.0010634 Eh/α   predicted     0.0000000E+00 (-100.00%)
   displ. norm   :     0.0386535 α      lambda       -0.4983103E-06
   maximum displ.:     0.0215114 α      in ANC's #6, #28, #1, ...

........................................................................
.............................. CYCLE   22 ..............................
........................................................................
   1    -83.3777491 -0.833777E+02  0.110E-02    3.16       0.0  T
   2    -83.3777492 -0.376602E-07  0.654E-03    3.16       2.0  T
   3    -83.3777491  0.737793E-07  0.119E-03    3.16      10.8  T
   4    -83.3777492 -0.871931E-07  0.201E-04    3.16      64.2  T
   5    -83.3777492 -0.896591E-09  0.135E-04    3.16      95.6  T
     SCC iter.                  ...        0 min,  0.014 sec
     gradient                   ...        0 min,  0.028 sec
 * total energy  :   -82.2979866 Eh     change       -0.1274094E-04 Eh
   gradient norm :     0.0010064 Eh/α   predicted    -0.6065577E-05 ( -52.39%)
   displ. norm   :     0.0595720 α      lambda       -0.9355531E-05
   maximum displ.:     0.0381172 α      in ANC's #6, #1, #10, ...

........................................................................
.............................. CYCLE   23 ..............................
........................................................................
   1    -83.3778194 -0.833778E+02  0.121E-02    3.16       0.0  T
   2    -83.3778194 -0.388755E-07  0.722E-03    3.16       1.8  T
   3    -83.3778192  0.220422E-06  0.189E-03    3.16       6.8  T
   4    -83.3778195 -0.237330E-06  0.390E-04    3.16      33.1  T
   5    -83.3778195 -0.817741E-08  0.173E-04    3.16      74.8  T
     SCC iter.                  ...        0 min,  0.014 sec
     gradient                   ...        0 min,  0.028 sec
 * total energy  :   -82.2979955 Eh     change       -0.8903520E-05 Eh
   gradient norm :     0.0019858 Eh/α   predicted    -0.4694128E-05 ( -47.28%)
   displ. norm   :     0.0503112 α      lambda       -0.5324178E-05
   maximum displ.:     0.0311796 α      in ANC's #6, #1, #2, ...

........................................................................
.............................. CYCLE   24 ..............................
........................................................................
   1    -83.3778158 -0.833778E+02  0.747E-03    3.16       0.0  T
   2    -83.3778158 -0.123392E-07  0.449E-03    3.16       2.9  T
   3    -83.3778157  0.841805E-07  0.110E-03    3.16      11.8  T
   4    -83.3778158 -0.941029E-07  0.186E-04    3.16      69.3  T
   5    -83.3778158 -0.532950E-09  0.123E-04    3.16     104.7  T
     SCC iter.                  ...        0 min,  0.014 sec
     gradient                   ...        0 min,  0.028 sec
 * total energy  :   -82.2980007 Eh     change       -0.5198165E-05 Eh
   gradient norm :     0.0028221 Eh/α   predicted    -0.2670720E-05 ( -48.62%)
   displ. norm   :     0.0376255 α      lambda       -0.5217554E-05
   maximum displ.:     0.0219622 α      in ANC's #1, #6, #2, ...

........................................................................
.............................. CYCLE   25 ..............................
........................................................................
   1    -83.3777538 -0.833778E+02  0.548E-03    3.16       0.0  T
   2    -83.3777538 -0.314130E-08  0.332E-03    3.16       3.9  T
   3    -83.3777537  0.880610E-07  0.116E-03    3.16      11.1  T
   4    -83.3777538 -0.949735E-07  0.141E-04    3.16      91.4  T
   5    -83.3777538 -0.323297E-09  0.799E-05    3.16     161.7  T
     SCC iter.                  ...        0 min,  0.014 sec
     gradient                   ...        0 min,  0.027 sec
 * total energy  :   -82.2980051 Eh     change       -0.4425499E-05 Eh
   gradient norm :     0.0011688 Eh/α   predicted    -0.2622634E-05 ( -40.74%)
   displ. norm   :     0.1012752 α      lambda       -0.7692238E-05
   maximum displ.:     0.0605150 α      in ANC's #1, #6, #2, ...

........................................................................
.............................. CYCLE   26 ..............................
........................................................................
   1    -83.3776104 -0.833776E+02  0.144E-02    3.16       0.0  T
   2    -83.3776104 -0.301751E-07  0.875E-03    3.16       1.5  T
   3    -83.3776100  0.407700E-06  0.253E-03    3.16       5.1  T
   4    -83.3776105 -0.440493E-06  0.380E-04    3.16      33.9  T
   5    -83.3776105 -0.309299E-08  0.190E-04    3.16      68.0  T
     SCC iter.                  ...        0 min,  0.014 sec
     gradient                   ...        0 min,  0.028 sec
 * total energy  :   -82.2980124 Eh     change       -0.7221023E-05 Eh
   gradient norm :     0.0014129 Eh/α   predicted    -0.3865836E-05 ( -46.46%)
   displ. norm   :     0.0482571 α      lambda       -0.2696299E-05
   maximum displ.:     0.0317251 α      in ANC's #1, #2, #6, ...

........................................................................
.............................. CYCLE   27 ..............................
........................................................................
   1    -83.3776630 -0.833777E+02  0.531E-03    3.16       0.0  T
   2    -83.3776630 -0.111942E-07  0.320E-03    3.16       4.0  T
   3    -83.3776629  0.958708E-07  0.122E-03    3.16      10.6  T
   4    -83.3776630 -0.105431E-06  0.208E-04    3.16      62.2  T
   5    -83.3776630 -0.137541E-08  0.102E-04    3.16     126.1  T
     SCC iter.                  ...        0 min,  0.014 sec
     gradient                   ...        0 min,  0.028 sec
 * total energy  :   -82.2980158 Eh     change       -0.3471835E-05 Eh
   gradient norm :     0.0011081 Eh/α   predicted    -0.1349885E-05 ( -61.12%)
   displ. norm   :     0.0625897 α      lambda       -0.4393183E-05
   maximum displ.:     0.0406065 α      in ANC's #1, #2, #3, ...

........................................................................
.............................. CYCLE   28 ..............................
........................................................................
   1    -83.3777517 -0.833778E+02  0.781E-03    3.16       0.0  T
   2    -83.3777517 -0.199627E-07  0.464E-03    3.16       2.8  T
   3    -83.3777516  0.175208E-06  0.162E-03    3.16       8.0  T
   4    -83.3777518 -0.193050E-06  0.269E-04    3.16      48.0  T
   5    -83.3777518 -0.234522E-08  0.128E-04    3.16     100.9  T
     SCC iter.                  ...        0 min,  0.014 sec
     gradient                   ...        0 min,  0.028 sec
 * total energy  :   -82.2980210 Eh     change       -0.5197925E-05 Eh
   gradient norm :     0.0013623 Eh/α   predicted    -0.2200825E-05 ( -57.66%)
   displ. norm   :     0.0819256 α      lambda       -0.4894875E-05
   maximum displ.:     0.0534315 α      in ANC's #1, #2, #3, ...

........................................................................
.............................. CYCLE   29 ..............................
........................................................................
   1    -83.3777745 -0.833778E+02  0.104E-02    3.16       0.0  T
   2    -83.3777745 -0.228751E-07  0.617E-03    3.16       2.1  T
   3    -83.3777743  0.187829E-06  0.167E-03    3.16       7.7  T
   4    -83.3777746 -0.207235E-06  0.298E-04    3.16      43.4  T
   5    -83.3777746 -0.264590E-08  0.152E-04    3.16      85.1  T
     SCC iter.                  ...        0 min,  0.019 sec
     gradient                   ...        0 min,  0.028 sec
 * total energy  :   -82.2980260 Eh     change       -0.4977425E-05 Eh
   gradient norm :     0.0021806 Eh/α   predicted    -0.2455374E-05 ( -50.67%)
   displ. norm   :     0.0418126 α      lambda       -0.3005108E-05
   maximum displ.:     0.0284943 α      in ANC's #1, #2, #3, ...

........................................................................
.............................. CYCLE   30 ..............................
........................................................................
   1    -83.3777900 -0.833778E+02  0.436E-03    3.16       0.0  T
   2    -83.3777900 -0.368652E-08  0.261E-03    3.16       4.9  T
   3    -83.3777899  0.363792E-07  0.716E-04    3.16      18.0  T
   4    -83.3777900 -0.401236E-07  0.120E-04    3.16     107.7  T
     SCC iter.                  ...        0 min,  0.011 sec
     gradient                   ...        0 min,  0.028 sec
 * total energy  :   -82.2980287 Eh     change       -0.2654588E-05 Eh
   gradient norm :     0.0008907 Eh/α   predicted    -0.1508496E-05 ( -43.17%)
   displ. norm   :     0.0675410 α      lambda       -0.3526144E-05
   maximum displ.:     0.0466542 α      in ANC's #1, #2, #3, ...

   *** GEOMETRY OPTIMIZATION CONVERGED AFTER 30 ITERATIONS ***

------------------------------------------------------------------------
 total energy gain   :        -0.1795161 Eh     -112.6481 kcal/mol
 total RMSD          :         0.0979458 a0        0.0518 Å
 total power (kW/mol):       -15.7106507 (step) -297.2531 (real)
------------------------------------------------------------------------

 ANCopt (total)                0 d,  0 h,  0 min,  1.586 sec
 optimizer setup                ...        0 min,  0.000 sec (  0.005%)
 model hessian                  ...        0 min,  0.066 sec (  4.152%)
 ANC generation                 ...        0 min,  0.005 sec (  0.338%)
 coordinate transformation      ...        0 min,  0.000 sec (  0.030%)
 single point calculation       ...        0 min,  1.503 sec ( 94.812%)
 optimization log               ...        0 min,  0.006 sec (  0.387%)
 hessian update                 ...        0 min,  0.001 sec (  0.044%)
 rational function              ...        0 min,  0.002 sec (  0.153%)

================
 final structure:
================
60
 xtb: 6.5.0 (homebrew)
C            3.48630441989057      -37.72084116614047       15.90901338045350
C            3.73426019578636      -38.14618998470926       17.35442405859362
O            3.26044103144159      -37.13147345024962       18.23829407023212
C            2.91768078803714      -39.41039671117687       17.65204317362531
C            5.24782988471342      -38.28819099070216       17.75430043615005
C            5.76933997115665      -39.72255328045531       17.79886035774413
C            6.17873508187600      -37.44226364855788       16.87637367728005
O            5.29040566167242      -37.72587370112854       19.06586408834334
B            4.15364992285162      -36.99382282405604       19.26872841103541
C            3.88770698557429      -36.12795172098476       20.52970568583039
C            4.91802430422502      -35.95648034723026       21.47259361090221
C            4.93755425071912      -35.13545166368348       22.56271916451582
H            5.87130270452554      -35.04014396672499       23.10081463444129
C            3.81017238633659      -34.29745183119640       23.07837729161668
H            4.03870700878105      -33.90087279872684       24.06711586153551
C            2.43793494411531      -34.90276148341538       23.11465921313398
B            1.68819202030165      -34.89785724554957       24.48250741213498
O            2.20919983904237      -34.36744359087432       25.63100501978627
C            1.35366081058946      -34.70467165183080       26.72165585541940
C            1.22624959867941      -33.50688411727760       27.66007805114377
C            2.02759719121993      -35.86086610990260       27.47167046111695
C            0.02059114220842      -35.13401537199638       26.00758358309412
C           -0.99355095791828      -33.98824587170533       25.89948296668361
C           -0.66824123099715      -36.35629413881537       26.61048103803231
O            0.44829962880888      -35.43711522860218       24.67986581027226
C            1.88415798389638      -35.46568842196484       22.04088244865986
C            2.48671116204686      -35.57481813851388       20.69354783111850
H            1.80470483056122      -36.06785013308470       20.00368020526533
C            3.14294375937903      -34.39985109256824       20.04841901484961
C            3.82188897990125      -33.36510252062867       20.69003934146176
C            4.16399563200804      -33.31164115944606       22.01401929841267
H            4.79717850298106      -32.49419449438109       22.33263705171074
H            2.41409927819093      -37.66232260456883       15.73863957921487
H            3.91168769770874      -38.45052670163790       15.22534866465013
H            3.91261937632318      -36.74360421283891       15.70699768091622
H            1.86381680221238      -39.18136640770766       17.51047874873413
H            3.05913622687503      -39.71403777747716       18.68630763053507
H            3.19497385375374      -40.22325535781107       16.98776500656572
H            5.65628347435303      -40.19409421619612       16.82641455137609
H            5.24615841859767      -40.30641764446416       18.54909902983012
H            6.82411564418256      -39.70561350018432       18.06151431262460
H            6.23043474241855      -37.83583590544585       15.86563652581122
H            7.17409193829107      -37.45802809898684       17.31437347079331
H            5.83923452187284      -36.40969720977021       16.85355083868639
H            5.84740816612026      -36.44614337831535       21.20750752735416
H            2.19594558551706      -33.30706174570818       28.10935841331423
H            0.51101846816922      -33.72251891756666       28.44923609218430
H            0.91556909062278      -32.61738974882712       27.12175394970146
H            3.01525992946898      -35.53567033205566       27.79077613802869
H            2.15345554516615      -36.71427975611175       26.81007598574531
H            1.45192682624671      -36.15235924469614       28.34495895589369
H           -1.39630635698848      -33.72665048695300       26.87340712811346
H           -1.80770853069254      -34.30819027243298       25.25333926395058
H           -0.52861432793073      -33.11666420323916       25.44567784179296
H           -0.92138508382262      -36.17098243613256       27.65087416882822
H           -0.03657215284260      -37.23588700050646       26.54121819902326
H           -1.58195180054217      -36.55407215609929       26.05558883543541
H            0.89826827664437      -35.89815745631408       22.14632420475084
H            3.03639231605774      -34.34647243751760       18.97539004227462
H            4.23073363961579      -32.59440193415296       20.04667470927625

 Bond Distances (Angstroems)
 ---------------------------
C1-C2=1.5270         C1-H33=1.0872        C1-H34=1.0866        C1-H35=1.0851        C2-C1=1.5270         C2-O3=1.4267         
C2-C4=1.5341         C2-C5=1.5719         O3-C2=1.4267         O3-B9=1.3706         C4-C2=1.5341         C4-H36=1.0877        
C4-H37=1.0872        C4-H38=1.0858        C5-C2=1.5719         C5-C6=1.5269         C5-C7=1.5339         C5-O8=1.4277         
C6-C5=1.5269         C6-H39=1.0866        C6-H40=1.0851        C6-H41=1.0871        C7-C5=1.5339         C7-H42=1.0859        
C7-H43=1.0876        C7-H44=1.0872        O8-C5=1.4277         O8-B9=1.3672         B9-O3=1.3706         B9-O8=1.3672         
B9-C10=1.5526        C10-B9=1.5526        C10-C11=1.4071       C10-C27=1.5151       C10-C29=1.9423       C11-C10=1.4071       
C11-C12=1.3649       C11-H45=1.0834       C12-C11=1.3649       C12-H13=1.0819       C12-C14=1.4964       H13-C12=1.0819       
C14-C12=1.4964       C14-H15=1.0895       C14-C16=1.5003       C14-C31=1.4933       H15-C14=1.0895       C16-C14=1.5003       
C16-B17=1.5599       C16-C26=1.3329       B17-C16=1.5599       B17-O18=1.3682       B17-O25=1.3664       O18-B17=1.3682       
O18-C19=1.4266       C19-O18=1.4266       C19-C20=1.5269       C19-C21=1.5341       C19-C22=1.5720       C20-C19=1.5269       
C20-H46=1.0872       C20-H47=1.0867       C20-H48=1.0851       C21-C19=1.5341       C21-H49=1.0877       C21-H50=1.0871       
C21-H51=1.0858       C22-C19=1.5720       C22-C23=1.5339       C22-C24=1.5271       C22-O25=1.4275       C23-C22=1.5339       
C23-H52=1.0859       C23-H53=1.0875       C23-H54=1.0871       C24-C22=1.5271       C24-H55=1.0867       C24-H56=1.0851       
C24-H57=1.0871       O25-B17=1.3664       O25-C22=1.4275       C26-C16=1.3329       C26-C27=1.4800       C26-H58=1.0817       
C27-C10=1.5151       C27-C26=1.4800       C27-H28=1.0882       C27-C29=1.4924       H28-C27=1.0882       C29-C10=1.9423       
C29-C27=1.4924       C29-C30=1.3940       C29-H59=1.0796       C30-C29=1.3940       C30-C31=1.3685       C30-H60=1.0840       
C31-C14=1.4933       C31-C30=1.3685       C31-H32=1.0820       H32-C31=1.0820       H33-C1=1.0872        H34-C1=1.0866        
H35-C1=1.0851        H36-C4=1.0877        H37-C4=1.0872        H38-C4=1.0858        H39-C6=1.0866        H40-C6=1.0851        
H41-C6=1.0871        H42-C7=1.0859        H43-C7=1.0876        H44-C7=1.0872        H45-C11=1.0834       H46-C20=1.0872       
H47-C20=1.0867       H48-C20=1.0851       H49-C21=1.0877       H50-C21=1.0871       H51-C21=1.0858       H52-C23=1.0859       
H53-C23=1.0875       H54-C23=1.0871       H55-C24=1.0867       H56-C24=1.0851       H57-C24=1.0871       H58-C26=1.0817       
H59-C29=1.0796       H60-C30=1.0840       
 C  H  Rav=1.0859 sigma=0.0021  Rmin=1.0796  Rmax=1.0895    32
 C  B  Rav=1.5562 sigma=0.0036  Rmin=1.5526  Rmax=1.5599     2
 C  C  Rav=1.5080 sigma=0.1160  Rmin=1.3329  Rmax=1.9423    22
 O  B  Rav=1.3681 sigma=0.0016  Rmin=1.3664  Rmax=1.3706     4
 O  C  Rav=1.4271 sigma=0.0005  Rmin=1.4266  Rmax=1.4277     4

 selected bond angles (degree)
 --------------------
H33-C1-C2=108.87               H34-C1-C2=110.18               H34-C1-H33=108.88              H35-C1-C2=111.30               
H35-C1-H33=108.05              H35-C1-H34=109.50              O3-C2-C1=109.54                C4-C2-C1=109.07                
C4-C2-O3=106.81                C5-C2-C1=114.98                C5-C2-O3=103.09                C5-C2-C4=112.87                
B9-O3-C2=108.71                H36-C4-C2=108.48               H37-C4-C2=110.21               H37-C4-H36=107.98              
H38-C4-C2=111.24               H38-C4-H36=108.99              H38-C4-H37=109.86              C6-C5-C2=114.91                
C7-C5-C2=112.89                C7-C5-C6=109.12                O8-C5-C2=103.11                O8-C5-C6=109.45                
O8-C5-C7=106.89                H39-C6-C5=110.24               H40-C6-C5=111.16               H40-C6-H39=109.58              
H41-C6-C5=108.89               H41-C6-H39=108.90              H41-C6-H40=108.01              H42-C7-C5=111.21               
H43-C7-C5=108.48               H43-C7-H42=109.03              H44-C7-C5=110.26               H44-C7-H42=109.85              
H44-C7-H43=107.94              B9-O8-C5=108.81                O8-B9-O3=112.12                C10-B9-O3=123.71               
C10-B9-O8=124.16               C11-C10-B9=119.13              C27-C10-B9=116.73              C27-C10-C11=124.06             
C29-C10-B9=111.14              C29-C10-C11=109.78             C29-C10-C27= 49.26             

 selected dihedral angles (degree)
 ---------------------------------
O3-C2-C1-H33=295.00           O3-C2-C1-H34=175.66           O3-C2-C1-H35= 53.99           C4-C2-C1-H33= 51.57           
C4-C2-C1-H34=292.23           C4-C2-C1-H35=170.56           C5-C2-C1-H33=179.51           C5-C2-C1-H34= 60.17           
C5-C2-C1-H35=298.50           B9-O3-C2-C1=220.16            B9-O3-C2-C4=102.16            B9-O3-C2-C5=343.01            
H36-C4-C2-C1=299.60           H36-C4-C2-O3= 57.89           H36-C4-C2-C5=170.49           H37-C4-C2-C1=181.57           
H37-C4-C2-O3=299.87           H37-C4-C2-C5= 52.46           H38-C4-C2-C1= 59.47           H38-C4-C2-O3=177.77           
H38-C4-C2-C5=290.36           C6-C5-C2-C1=258.29            C6-C5-C2-O3=139.14            C6-C5-C2-C4= 24.29            
C7-C5-C2-C1= 24.30            C7-C5-C2-O3=265.15            C7-C5-C2-C4=150.30            O8-C5-C2-C1=139.27            
O8-C5-C2-O3= 20.12            O8-C5-C2-C4=265.27            H39-C6-C5-C2= 59.31           H39-C6-C5-C7=291.37           
H39-C6-C5-O8=174.73           H40-C6-C5-C2=297.59           H40-C6-C5-C7=169.66           H40-C6-C5-O8= 53.01           
H41-C6-C5-C2=178.72           H41-C6-C5-C7= 50.79           H41-C6-C5-O8=294.14           H42-C7-C5-C2=290.37           
H42-C7-C5-C6= 59.43           H42-C7-C5-O8=177.69           H43-C7-C5-C2=170.47           H43-C7-C5-C6=299.53           
H43-C7-C5-O8= 57.80           H44-C7-C5-C2= 52.47           H44-C7-C5-C6=181.53           H44-C7-C5-O8=299.80           
B9-O8-C5-C2=343.58            B9-O8-C5-C6=220.84            B9-O8-C5-C7=102.79            O8-B9-O3-C2=  7.64            
C10-B9-O3-C2=188.77           O3-B9-O8-C5=  6.64            C10-B9-O8-C5=185.51           C11-C10-B9-O3=185.72          
C11-C10-B9-O8=  6.97          C27-C10-B9-O3=  8.76          C27-C10-B9-O8=190.02          C29-C10-B9-O3=314.82          
C29-C10-B9-O8=136.08          
           -------------------------------------------------
          |                Final Singlepoint                |
           -------------------------------------------------

          ...................................................
          :                      SETUP                      :
          :.................................................:
          :  # basis functions                 144          :
          :  # atomic orbitals                 144          :
          :  # shells                           88          :
          :  # electrons                       150          :
          :  max. iterations                   250          :
          :  Hamiltonian                  GFN2-xTB          :
          :  restarted?                      false          :
          :  GBSA solvation                  false          :
          :  PC potential                    false          :
          :  electronic temp.          300.0000000     K    :
          :  accuracy                    1.0000000          :
          :  -> integral cutoff          0.2500000E+02      :
          :  -> integral neglect         0.1000000E-07      :
          :  -> SCF convergence          0.1000000E-05 Eh   :
          :  -> wf. convergence          0.1000000E-03 e    :
          :  Broyden damping             0.4000000          :
          ...................................................

 iter      E             dE          RMSdq      gap      omega  full diag
   1    -83.3777900 -0.833778E+02  0.668E-05    3.16       0.0  T
   2    -83.3777900 -0.220410E-10  0.462E-05    3.16     279.2  T
   3    -83.3777900 -0.269438E-10  0.318E-05    3.16     406.1  T

   *** convergence criteria satisfied after 3 iterations ***

         #    Occupation            Energy/Eh            Energy/eV
      -------------------------------------------------------------
         1        2.0000           -0.6891916             -18.7539
       ...           ...                  ...                  ...
        69        2.0000           -0.4046994             -11.0124
        70        2.0000           -0.3982343             -10.8365
        71        2.0000           -0.3969299             -10.8010
        72        2.0000           -0.3939206             -10.7191
        73        2.0000           -0.3858402             -10.4992
        74        2.0000           -0.3497460              -9.5171
        75        2.0000           -0.3467283              -9.4350 (HOMO)
        76                         -0.2306888              -6.2774 (LUMO)
        77                         -0.2121376              -5.7726
        78                         -0.1881923              -5.1210
        79                         -0.1309340              -3.5629
        80                         -0.0968850              -2.6364
       ...                                ...                  ...
       144                          0.6904187              18.7872
      -------------------------------------------------------------
                  HL-Gap            0.1160394 Eh            3.1576 eV
             Fermi-level           -0.2887086 Eh           -7.8562 eV

 SCC (total)                   0 d,  0 h,  0 min,  0.043 sec
 SCC setup                      ...        0 min,  0.000 sec (  0.522%)
 Dispersion                     ...        0 min,  0.000 sec (  0.882%)
 classical contributions        ...        0 min,  0.000 sec (  0.400%)
 integral evaluation            ...        0 min,  0.006 sec ( 13.942%)
 iterations                     ...        0 min,  0.008 sec ( 19.611%)
 molecular gradient             ...        0 min,  0.028 sec ( 63.825%)
 printout                       ...        0 min,  0.000 sec (  0.804%)

         :::::::::::::::::::::::::::::::::::::::::::::::::::::
         ::                     SUMMARY                     ::
         :::::::::::::::::::::::::::::::::::::::::::::::::::::
         :: total energy             -82.298028657737 Eh    ::
         :: gradient norm              0.000891221018 Eh/a0 ::
         :: HOMO-LUMO gap              3.157593034977 eV    ::
         ::.................................................::
         :: SCC energy               -83.377789969259 Eh    ::
         :: -> isotropic ES            0.147979683061 Eh    ::
         :: -> anisotropic ES          0.011631886761 Eh    ::
         :: -> anisotropic XC          0.026829535324 Eh    ::
         :: -> dispersion             -0.061985342982 Eh    ::
         :: repulsion energy           1.079062100318 Eh    ::
         :: add. restraining           0.000030663737 Eh    ::
         :: total charge              -0.000000000000 e     ::
         :::::::::::::::::::::::::::::::::::::::::::::::::::::

           -------------------------------------------------
          |                Property Printout                |
           -------------------------------------------------

    * Orbital Energies and Occupations

         #    Occupation            Energy/Eh            Energy/eV
      -------------------------------------------------------------
         1        2.0000           -0.6891916             -18.7539
       ...           ...                  ...                  ...
        63        2.0000           -0.4335914             -11.7986
        64        2.0000           -0.4331013             -11.7853
        65        2.0000           -0.4269420             -11.6177
        66        2.0000           -0.4219411             -11.4816
        67        2.0000           -0.4191995             -11.4070
        68        2.0000           -0.4156456             -11.3103
        69        2.0000           -0.4046994             -11.0124
        70        2.0000           -0.3982343             -10.8365
        71        2.0000           -0.3969299             -10.8010
        72        2.0000           -0.3939206             -10.7191
        73        2.0000           -0.3858402             -10.4992
        74        2.0000           -0.3497460              -9.5171
        75        2.0000           -0.3467283              -9.4350 (HOMO)
        76                         -0.2306888              -6.2774 (LUMO)
        77                         -0.2121376              -5.7726
        78                         -0.1881923              -5.1210
        79                         -0.1309340              -3.5629
        80                         -0.0968850              -2.6364
        81                         -0.0633873              -1.7249
        82                          0.0087337               0.2377
        83                          0.0098334               0.2676
        84                          0.0277839               0.7560
        85                          0.0293783               0.7994
        86                          0.0568131               1.5460
       ...                                ...                  ...
       144                          0.6904187              18.7872
      -------------------------------------------------------------
                  HL-Gap            0.1160394 Eh            3.1576 eV
             Fermi-level           -0.2887086 Eh           -7.8562 eV

     #   Z          covCN         q      C6AA      α(0)
     1   6 C        3.755    -0.117    22.792     6.807
     2   6 C        3.859     0.130    18.441     6.107
     3   8 O        1.638    -0.378    20.442     6.103
     4   6 C        3.755    -0.116    22.778     6.805
     5   6 C        3.859     0.130    18.445     6.108
     6   6 C        3.755    -0.117    22.805     6.809
     7   6 C        3.755    -0.115    22.766     6.803
     8   8 O        1.638    -0.373    20.347     6.089
     9   5 B        2.659     0.435    15.534     6.636
    10   6 C        3.471    -0.071    24.073     7.358
    11   6 C        2.891    -0.049    29.212     8.861
    12   6 C        3.265    -0.025    27.366     8.444
    13   1 H        0.925     0.027     2.636     2.539
    14   6 C        3.865    -0.013    20.774     6.481
    15   1 H        0.925     0.046     2.374     2.410
    16   6 C        2.864    -0.082    30.057     8.987
    17   5 B        2.662     0.432    15.557     6.639
    18   8 O        1.638    -0.371    20.313     6.084
    19   6 C        3.860     0.129    18.455     6.109
    20   6 C        3.755    -0.117    22.798     6.808
    21   6 C        3.755    -0.116    22.778     6.805
    22   6 C        3.860     0.129    18.455     6.109
    23   6 C        3.755    -0.116    22.784     6.806
    24   6 C        3.755    -0.117    22.805     6.809
    25   8 O        1.638    -0.370    20.294     6.081
    26   6 C        2.896    -0.027    28.666     8.778
    27   6 C        3.862    -0.009    20.702     6.470
    28   1 H        0.925     0.045     2.379     2.412
    29   6 C        3.499    -0.016    22.520     7.045
    30   6 C        2.888    -0.050    29.244     8.866
    31   6 C        3.267    -0.021    27.247     8.423
    32   1 H        0.925     0.028     2.622     2.532
    33   1 H        0.925     0.054     2.268     2.355
    34   1 H        0.925     0.040     2.455     2.450
    35   1 H        0.925     0.051     2.306     2.375
    36   1 H        0.925     0.052     2.296     2.370
    37   1 H        0.925     0.044     2.401     2.423
    38   1 H        0.925     0.042     2.419     2.432
    39   1 H        0.925     0.040     2.450     2.448
    40   1 H        0.925     0.052     2.290     2.367
    41   1 H        0.925     0.054     2.265     2.354
    42   1 H        0.925     0.043     2.414     2.430
    43   1 H        0.925     0.052     2.293     2.368
    44   1 H        0.925     0.043     2.412     2.429
    45   1 H        0.925     0.032     2.559     2.502
    46   1 H        0.925     0.054     2.269     2.356
    47   1 H        0.925     0.040     2.455     2.450
    48   1 H        0.925     0.052     2.296     2.369
    49   1 H        0.925     0.052     2.295     2.369
    50   1 H        0.925     0.044     2.399     2.422
    51   1 H        0.925     0.042     2.419     2.432
    52   1 H        0.925     0.043     2.414     2.430
    53   1 H        0.925     0.052     2.290     2.367
    54   1 H        0.925     0.044     2.398     2.421
    55   1 H        0.925     0.040     2.451     2.448
    56   1 H        0.925     0.052     2.293     2.368
    57   1 H        0.925     0.054     2.265     2.354
    58   1 H        0.925     0.038     2.479     2.462
    59   1 H        0.926     0.034     2.526     2.485
    60   1 H        0.925     0.022     2.707     2.573

 Mol. C6AA /au·bohr⁶  :      32867.667456
 Mol. C8AA /au·bohr⁸  :     761160.502945
 Mol. α(0) /au        :        273.733283


Wiberg/Mayer (AO) data.
largest (>0.10) Wiberg bond orders for each atom

 ---------------------------------------------------------------------------
     #   Z sym  total        # sym  WBO       # sym  WBO       # sym  WBO
 ---------------------------------------------------------------------------
     1   6 C    3.994 --     2 C    0.997    34 H    0.985    33 H    0.983
                            35 H    0.982
     2   6 C    3.943 --     1 C    0.997     4 C    0.991     3 O    0.953
                             5 C    0.937
     3   8 O    2.220 --     9 B    1.117     2 C    0.953
     4   6 C    3.994 --     2 C    0.991    38 H    0.984    37 H    0.984
                            36 H    0.983
     5   6 C    3.942 --     6 C    0.997     7 C    0.991     8 O    0.952
                             2 C    0.937
     6   6 C    3.994 --     5 C    0.997    39 H    0.984    41 H    0.983
                            40 H    0.982
     7   6 C    3.994 --     5 C    0.991    42 H    0.984    44 H    0.984
                            43 H    0.983
     8   8 O    2.228 --     9 B    1.126     5 C    0.952
     9   5 B    3.383 --     8 O    1.126     3 O    1.117    10 C    1.016
    10   6 C    3.932 --    11 C    1.322     9 B    1.016    27 C    0.918
                            29 C    0.440    31 C    0.114
    11   6 C    3.989 --    12 C    1.564    10 C    1.322    45 H    0.962
    12   6 C    3.967 --    11 C    1.564    13 H    0.971    14 C    0.958
                            31 C    0.281    29 C    0.109
    13   1 H    0.999 --    12 C    0.971
    14   6 C    3.987 --    16 C    0.997    15 H    0.969    31 C    0.968
                            12 C    0.958
    15   1 H    0.998 --    14 C    0.969
    16   6 C    3.977 --    26 C    1.843    17 B    0.999    14 C    0.997
    17   5 B    3.376 --    25 O    1.132    18 O    1.128    16 C    0.999
    18   8 O    2.233 --    17 B    1.128    19 C    0.953
    19   6 C    3.943 --    20 C    0.997    21 C    0.991    18 O    0.953
                            22 C    0.936
    20   6 C    3.994 --    19 C    0.997    47 H    0.985    46 H    0.983
                            48 H    0.982
    21   6 C    3.994 --    19 C    0.991    51 H    0.984    50 H    0.984
                            49 H    0.983
    22   6 C    3.942 --    24 C    0.996    23 C    0.991    25 O    0.953
                            19 C    0.936
    23   6 C    3.995 --    22 C    0.991    52 H    0.984    54 H    0.984
                            53 H    0.983
    24   6 C    3.994 --    22 C    0.996    55 H    0.985    57 H    0.983
                            56 H    0.982
    25   8 O    2.235 --    17 B    1.132    22 C    0.953
    26   6 C    3.988 --    16 C    1.843    27 C    1.029    58 H    0.966
    27   6 C    3.982 --    26 C    1.029    28 H    0.968    29 C    0.960
                            10 C    0.918
    28   1 H    0.998 --    27 C    0.968
    29   6 C    3.949 --    30 C    1.363    59 H    0.973    27 C    0.960
                            10 C    0.440    12 C    0.109
    30   6 C    3.987 --    31 C    1.537    29 C    1.363    60 H    0.964
    31   6 C    3.957 --    30 C    1.537    32 H    0.972    14 C    0.968
                            12 C    0.281    10 C    0.114
    32   1 H    0.999 --    31 C    0.972
    33   1 H    0.997 --     1 C    0.983
    34   1 H    0.998 --     1 C    0.985
    35   1 H    0.997 --     1 C    0.982
    36   1 H    0.997 --     4 C    0.983
    37   1 H    0.998 --     4 C    0.984
    38   1 H    0.998 --     4 C    0.984
    39   1 H    0.998 --     6 C    0.984
    40   1 H    0.997 --     6 C    0.982
    41   1 H    0.997 --     6 C    0.983
    42   1 H    0.998 --     7 C    0.984
    43   1 H    0.997 --     7 C    0.983
    44   1 H    0.998 --     7 C    0.984
    45   1 H    0.999 --    11 C    0.962
    46   1 H    0.997 --    20 C    0.983
    47   1 H    0.998 --    20 C    0.985
    48   1 H    0.997 --    20 C    0.982
    49   1 H    0.997 --    21 C    0.983
    50   1 H    0.998 --    21 C    0.984
    51   1 H    0.998 --    21 C    0.984
    52   1 H    0.998 --    23 C    0.984
    53   1 H    0.997 --    23 C    0.983
    54   1 H    0.998 --    23 C    0.984
    55   1 H    0.998 --    24 C    0.985
    56   1 H    0.997 --    24 C    0.982
    57   1 H    0.997 --    24 C    0.983
    58   1 H    0.998 --    26 C    0.966
    59   1 H    0.998 --    29 C    0.973
    60   1 H    0.999 --    30 C    0.964
 ---------------------------------------------------------------------------

Topologies differ in total number of bonds
Writing topology from bond orders to xtbtopo.mol

molecular dipole:
                 x           y           z       tot (Debye)
 q only:       -0.294      -0.396       0.058
   full:       -0.158      -0.458      -0.056       1.239
molecular quadrupole (traceless):
                xx          xy          yy          xz          yz          zz
 q only:      -42.060      23.769      45.558     -30.205     -20.499      -3.497
  q+dip:      -40.261      11.765      54.696     -23.149     -10.467     -14.435
   full:      -40.916      10.513      56.523     -24.303     -11.906     -15.607

           -------------------------------------------------
          |                Geometry Summary                 |
           -------------------------------------------------

      molecular mass/u    :      382.1099696
   center of mass at/Å    :        2.9395292     -35.9453207      21.8384179
  moments of inertia/u·Å² :        0.1175314E+04   0.6872417E+04   0.7166004E+04
rotational constants/cm⁻¹ :        0.1434308E-01   0.2452941E-02   0.2352445E-02

 * 60 selected distances

     #   Z          #   Z                                           value/Å
     1   6 C        2   6 C                                       1.5269630
     2   6 C        3   8 O                                       1.4266677
     2   6 C        4   6 C                                       1.5341441
     5   6 C        6   6 C                                       1.5268772
     5   6 C        7   6 C                                       1.5339274
     5   6 C        8   8 O                                       1.4276600
     3   8 O        9   5 B                                       1.3706076
     8   8 O        9   5 B                                       1.3672112
     9   5 B       10   6 C                                       1.5525858
    10   6 C       11   6 C                                       1.4071227
    11   6 C       12   6 C                                       1.3648603
    12   6 C       13   1 H                                       1.0819042
    12   6 C       14   6 C                                       1.4963747
    14   6 C       15   1 H                                       1.0895445
    16   6 C       17   5 B                                       1.5598550 (max)
    17   5 B       18   8 O                                       1.3681502
    18   8 O       19   6 C                                       1.4266007
    19   6 C       20   6 C                                       1.5269464
    19   6 C       21   6 C                                       1.5341115
    22   6 C       23   6 C                                       1.5339355
    22   6 C       24   6 C                                       1.5270695
    17   5 B       25   8 O                                       1.3664125
    22   6 C       25   8 O                                       1.4274589
    16   6 C       26   6 C                                       1.3328738
    10   6 C       27   6 C                                       1.5151207
    26   6 C       27   6 C                                       1.4799630
    27   6 C       28   1 H                                       1.0881777
    27   6 C       29   6 C                                       1.4924411
    29   6 C       30   6 C                                       1.3940403
    14   6 C       31   6 C                                       1.4932756
    30   6 C       31   6 C                                       1.3685095
    31   6 C       32   1 H                                       1.0819691
     1   6 C       33   1 H                                       1.0872331
     1   6 C       34   1 H                                       1.0866414
     1   6 C       35   1 H                                       1.0851484
     4   6 C       36   1 H                                       1.0877154
     4   6 C       37   1 H                                       1.0871572
     4   6 C       38   1 H                                       1.0857699
     6   6 C       39   1 H                                       1.0866387
     6   6 C       40   1 H                                       1.0851151
     6   6 C       41   1 H                                       1.0871182
     7   6 C       42   1 H                                       1.0858922
     7   6 C       43   1 H                                       1.0875789
     7   6 C       44   1 H                                       1.0871868
    11   6 C       45   1 H                                       1.0834182
    20   6 C       46   1 H                                       1.0872407
    20   6 C       47   1 H                                       1.0866575
    20   6 C       48   1 H                                       1.0851339
    21   6 C       49   1 H                                       1.0876850
    21   6 C       50   1 H                                       1.0871351
    21   6 C       51   1 H                                       1.0858166
    23   6 C       52   1 H                                       1.0858971
    23   6 C       53   1 H                                       1.0875288
    23   6 C       54   1 H                                       1.0870878
    24   6 C       55   1 H                                       1.0866648
    24   6 C       56   1 H                                       1.0851207
    24   6 C       57   1 H                                       1.0871471
    26   6 C       58   1 H                                       1.0817237
    29   6 C       59   1 H                                       1.0796267 (min)
    30   6 C       60   1 H                                       1.0839980

 * 5 distinct bonds (by element types)

   Z      Z             #   av. dist./Å        max./Å        min./Å
   1 H    6 C          32     1.0858960     1.0895445     1.0796267
   5 B    6 C           2     1.5562204     1.5598550     1.5525858
   6 C    6 C          18     1.4771420     1.5341441     1.3328738
   5 B    8 O           4     1.3680953     1.3706076     1.3664125
   6 C    8 O           4     1.4270968     1.4276600     1.4266007


optimized geometry written to: xtbopt.xyz


           -------------------------------------------------
          | TOTAL ENERGY              -82.298028657737 Eh   |
          | GRADIENT NORM               0.000891221018 Eh/α |
          | HOMO-LUMO GAP               3.157593034977 eV   |
           -------------------------------------------------

------------------------------------------------------------------------
 * finished run on 2022/07/09 at 18:33:27.597     
------------------------------------------------------------------------
 total:
 * wall-time:     0 d,  0 h,  0 min,  1.710 sec
 *  cpu-time:     0 d,  0 h,  0 min,  1.708 sec
 * ratio c/w:     0.999 speedup
 SCF:
 * wall-time:     0 d,  0 h,  0 min,  0.068 sec
 *  cpu-time:     0 d,  0 h,  0 min,  0.068 sec
 * ratio c/w:     1.000 speedup
 ANC optimizer:
 * wall-time:     0 d,  0 h,  0 min,  1.630 sec
 *  cpu-time:     0 d,  0 h,  0 min,  1.628 sec
 * ratio c/w:     0.999 speedup

