      -----------------------------------------------------------      
     |                   =====================                   |     
     |                           x T B                           |     
     |                   =====================                   |     
     |                         S. Grimme                         |     
     |          Mulliken Center for Theoretical Chemistry        |     
     |                    University of Bonn                     |     
      -----------------------------------------------------------      

   * xtb version 6.5.0 (homebrew) compiled by 'nhattrup@GPGGRP-SHANNON.CHEME.CMU.EDU' on 

   xtb is free software: you can redistribute it and/or modify it under
   the terms of the GNU Lesser General Public License as published by
   the Free Software Foundation, either version 3 of the License, or
   (at your option) any later version.
   
   xtb is distributed in the hope that it will be useful,
   but WITHOUT ANY WARRANTY; without even the implied warranty of
   MERCHANTABILITY or FITNESS FOR A PARTICULAR PURPOSE.  See the
   GNU Lesser General Public License for more details.
   
   Cite this work as:
   * C. Bannwarth, E. Caldeweyher, S. Ehlert, A. Hansen, P. Pracht,
     J. Seibert, S. Spicher, S. Grimme, WIREs Comput. Mol. Sci., 2020, 11,
     e01493. DOI: 10.1002/wcms.1493
   
   for GFN2-xTB:
   * C. Bannwarth, S. Ehlert and S. Grimme., J. Chem. Theory Comput., 2019,
     15, 1652-1671. DOI: 10.1021/acs.jctc.8b01176
   for GFN1-xTB:
   * S. Grimme, C. Bannwarth, P. Shushkov, J. Chem. Theory Comput., 2017,
     13, 1989-2009. DOI: 10.1021/acs.jctc.7b00118
   for GFN0-xTB:
   * P. Pracht, E. Caldeweyher, S. Ehlert, S. Grimme, ChemRxiv, 2019, preprint.
     DOI: 10.26434/chemrxiv.8326202.v1
   for GFN-FF:
   * S. Spicher and S. Grimme, Angew. Chem. Int. Ed., 2020, 59, 15665-15673.
     DOI: 10.1002/anie.202004239
   
   for ALPB and GBSA implicit solvation:
   * S. Ehlert, M. Stahn, S. Spicher, S. Grimme, J. Chem. Theory Comput.,
     2021, 17, 4250-4261. DOI: 10.1021/acs.jctc.1c00471
   
   for DFT-D4:
   * E. Caldeweyher, C. Bannwarth and S. Grimme, J. Chem. Phys., 2017,
     147, 034112. DOI: 10.1063/1.4993215
   * E. Caldeweyher, S. Ehlert, A. Hansen, H. Neugebauer, S. Spicher,
     C. Bannwarth and S. Grimme, J. Chem. Phys., 2019, 150, 154122.
     DOI: 10.1063/1.5090222
   * E. Caldeweyher, J.-M. Mewes, S. Ehlert and S. Grimme, Phys. Chem. Chem. Phys.
     2020, 22, 8499-8512. DOI: 10.1039/D0CP00502A
   
   for sTDA-xTB:
   * S. Grimme and C. Bannwarth, J. Chem. Phys., 2016, 145, 054103.
     DOI: 10.1063/1.4959605
   
   in the mass-spec context:
   * V. Asgeirsson, C. Bauer and S. Grimme, Chem. Sci., 2017, 8, 4879.
     DOI: 10.1039/c7sc00601b
   * J. Koopman and S. Grimme, ACS Omega 2019, 4, 12, 15120-15133.
     DOI: 10.1021/acsomega.9b02011
   
   for metadynamics refer to:
   * S. Grimme, J. Chem. Theory Comput., 2019, 155, 2847-2862
     DOI: 10.1021/acs.jctc.9b00143
   
   for SPH calculations refer to:
   * S. Spicher and S. Grimme, J. Chem. Theory Comput., 2021, 17, 1701-1714
     DOI: 10.1021/acs.jctc.0c01306
   
   with help from (in alphabetical order)
   P. Atkinson, C. Bannwarth, F. Bohle, G. Brandenburg, E. Caldeweyher
   M. Checinski, S. Dohm, S. Ehlert, S. Ehrlich, I. Gerasimov, C. Hölzer
   A. Katbashev, J. Koopman, C. Lavigne, S. Lehtola, F. März, M. Müller,
   F. Musil, H. Neugebauer, J. Pisarek, C. Plett, P. Pracht, F. Pultar,
   J. Seibert, P. Shushkov, S. Spicher, M. Stahn, M. Steiner, T. Strunk,
   J. Stückrath, T. Rose, and J. Unsleber
   
 * started run on 2022/07/09 at 18:33:44.699     

           -------------------------------------------------
          |                Calculation Setup                |
           -------------------------------------------------

          program call               : /opt/homebrew/bin/xtb bvl_bpin2_scan_9-8_xtb.xyz --chrg 0 --uhf 0 --opt --input xcontrol_bvl_bpin2_scan_9-8_xtb
          coordinate file            : bvl_bpin2_scan_9-8_xtb.xyz
          omp threads                :                     2

   ID    Z sym.   atoms
    1    6 C      1, 2, 4-7, 10-12, 14, 16, 19-24, 26, 27, 29-31
    2    8 O      3, 8, 18, 25
    3    5 B      9, 17
    4    1 H      13, 15, 28, 32-60
constraining bond 12 31 to    2.5000000 Å, actual value:    2.3891171 Å
constraining bond 10 29 to    1.6111000 Å, actual value:    1.7169694 Å

           -------------------------------------------------
          |                 G F N 2 - x T B                 |
           -------------------------------------------------

        Reference                      10.1021/acs.jctc.8b01176
      * Hamiltonian:
        H0-scaling (s, p, d)           1.850000    2.230000    2.230000
        zeta-weighting                 0.500000
      * Dispersion:
        s8                             2.700000
        a1                             0.520000
        a2                             5.000000
        s9                             5.000000
      * Repulsion:
        kExp                           1.500000    1.000000
        rExp                           1.000000
      * Coulomb:
        alpha                          2.000000
        third order                    shell-resolved
        anisotropic                    true
        a3                             3.000000
        a5                             4.000000
        cn-shift                       1.200000
        cn-exp                         4.000000
        max-rad                        5.000000


          ...................................................
          :                      SETUP                      :
          :.................................................:
          :  # basis functions                 144          :
          :  # atomic orbitals                 144          :
          :  # shells                           88          :
          :  # electrons                       150          :
          :  max. iterations                   250          :
          :  Hamiltonian                  GFN2-xTB          :
          :  restarted?                      false          :
          :  GBSA solvation                  false          :
          :  PC potential                    false          :
          :  electronic temp.          300.0000000     K    :
          :  accuracy                    1.0000000          :
          :  -> integral cutoff          0.2500000E+02      :
          :  -> integral neglect         0.1000000E-07      :
          :  -> SCF convergence          0.1000000E-05 Eh   :
          :  -> wf. convergence          0.1000000E-03 e    :
          :  Broyden damping             0.4000000          :
          ...................................................

 iter      E             dE          RMSdq      gap      omega  full diag
   1    -82.9539247 -0.829539E+02  0.474E+00    3.41       0.0  T
   2    -83.3439382 -0.390014E+00  0.290E+00    2.96       1.0  T
   3    -83.3578057 -0.138675E-01  0.140E+00    3.30       1.0  T
   4    -83.3814476 -0.236419E-01  0.412E-01    3.16       1.0  T
   5    -83.3920818 -0.106342E-01  0.158E-01    3.21       1.0  T
   6    -83.3920010  0.808236E-04  0.103E-01    3.22       1.0  T
   7    -83.3923377 -0.336717E-03  0.336E-02    3.21       1.0  T
   8    -83.3923773 -0.395987E-04  0.122E-02    3.21       1.1  T
   9    -83.3923824 -0.511724E-05  0.543E-03    3.21       2.4  T
  10    -83.3923831 -0.659346E-06  0.252E-03    3.21       5.1  T
  11    -83.3923831 -0.856868E-07  0.709E-04    3.21      18.2  T
  12    -83.3923832 -0.205976E-07  0.321E-04    3.21      40.2  T

   *** convergence criteria satisfied after 12 iterations ***

         #    Occupation            Energy/Eh            Energy/eV
      -------------------------------------------------------------
         1        2.0000           -0.6914583             -18.8155
       ...           ...                  ...                  ...
        69        2.0000           -0.4022282             -10.9452
        70        2.0000           -0.3999265             -10.8826
        71        2.0000           -0.3972828             -10.8106
        72        2.0000           -0.3951549             -10.7527
        73        2.0000           -0.3886190             -10.5749
        74        2.0000           -0.3560569              -9.6888
        75        2.0000           -0.3438345              -9.3562 (HOMO)
        76                         -0.2258652              -6.1461 (LUMO)
        77                         -0.2036830              -5.5425
        78                         -0.1827635              -4.9732
        79                         -0.1434093              -3.9024
        80                         -0.0952124              -2.5909
       ...                                ...                  ...
       144                          0.6762512              18.4017
      -------------------------------------------------------------
                  HL-Gap            0.1179692 Eh            3.2101 eV
             Fermi-level           -0.2848498 Eh           -7.7512 eV

 SCC (total)                   0 d,  0 h,  0 min,  0.091 sec
 SCC setup                      ...        0 min,  0.000 sec (  0.232%)
 Dispersion                     ...        0 min,  0.000 sec (  0.427%)
 classical contributions        ...        0 min,  0.000 sec (  0.152%)
 integral evaluation            ...        0 min,  0.003 sec (  3.680%)
 iterations                     ...        0 min,  0.070 sec ( 76.972%)
 molecular gradient             ...        0 min,  0.017 sec ( 18.198%)
 printout                       ...        0 min,  0.000 sec (  0.331%)

         :::::::::::::::::::::::::::::::::::::::::::::::::::::
         ::                     SUMMARY                     ::
         :::::::::::::::::::::::::::::::::::::::::::::::::::::
         :: total energy             -82.146344759632 Eh    ::
         :: gradient norm              1.679462105589 Eh/a0 ::
         :: HOMO-LUMO gap              3.210106592826 eV    ::
         ::.................................................::
         :: SCC energy               -83.392383158486 Eh    ::
         :: -> isotropic ES            0.148312365812 Eh    ::
         :: -> anisotropic ES          0.011410946411 Eh    ::
         :: -> anisotropic XC          0.026969925280 Eh    ::
         :: -> dispersion             -0.061876283953 Eh    ::
         :: repulsion energy           1.077507526666 Eh    ::
         :: add. restraining           0.167863904849 Eh    ::
         :: total charge              -0.000000000000 e     ::
         :::::::::::::::::::::::::::::::::::::::::::::::::::::

      ----------------------------------------------------------- 
     |                   =====================                   |
     |                        A N C O P T                        |
     |                   =====================                   |
     |               Approximate Normal Coordinate               |
     |                Rational Function Optimizer                |
      ----------------------------------------------------------- 

          ...................................................
          :                      SETUP                      :
          :.................................................:
          :   optimization level            normal          :
          :   max. optcycles                   200          :
          :   ANC micro-cycles                  20          :
          :   degrees of freedom               174          :
          :.................................................:
          :   RF solver                   davidson          :
          :   write xtbopt.log                true          :
          :   linear?                        false          :
          :   energy convergence         0.5000000E-05 Eh   :
          :   grad. convergence          0.1000000E-02 Eh/α :
          :   maximium RF displ.         1.0000000          :
          :   Hlow (freq-cutoff)         0.1000000E-01      :
          :   Hmax (freq-cutoff)         5.0000000          :
          :   S6 in model hess.         20.0000000          :
          ...................................................

generating ANC from model Hessian ...
Using Lindh-Hessian (1995)
 Shifting diagonal of input Hessian by   0.20970510796646805     
 Lowest  eigenvalues of input Hessian
    0.010000    0.169577    0.000000    0.000000    0.000000    0.000000
    0.000000    0.000000    0.209829    0.209849    0.210000    0.211361
    0.211619    0.212626    0.213007    0.213095    0.214316    0.214798
 Highest eigenvalues
    1.925049    2.108859    2.122492    2.152571    8.953811    9.139466


........................................................................
.............................. CYCLE    1 ..............................
........................................................................
   1    -83.3923832 -0.833924E+02  0.161E-04    3.21       0.0  T
   2    -83.3923832 -0.135475E-08  0.101E-04    3.21     127.3  T
   3    -83.3923832 -0.480540E-09  0.452E-05    3.21     285.4  T
     SCC iter.                  ...        0 min,  0.018 sec
     gradient                   ...        0 min,  0.017 sec
 * total energy  :   -82.1463448 Eh     change       -0.1419338E-08 Eh
   gradient norm :     1.6794629 Eh/α   predicted     0.0000000E+00 (-100.00%)
   displ. norm   :     0.3116000 α      lambda       -0.5161391E+00
   maximum displ.:     0.2461277 α      in ANC's #174, #173, #127, ...

........................................................................
.............................. CYCLE    2 ..............................
........................................................................
   1    -83.3979618 -0.833980E+02  0.289E-01    3.52       0.0  T
   2    -83.3980229 -0.611537E-04  0.197E-01    3.54       1.0  T
   3    -83.3977461  0.276792E-03  0.141E-01    3.53       1.0  T
   4    -83.3984985 -0.752369E-03  0.192E-02    3.53       1.0  T
   5    -83.3985156 -0.170951E-04  0.659E-03    3.53       2.0  T
   6    -83.3985171 -0.152001E-05  0.312E-03    3.53       4.1  T
   7    -83.3985173 -0.212760E-06  0.982E-04    3.53      13.2  T
   8    -83.3985173 -0.366857E-08  0.302E-04    3.53      42.8  T
     SCC iter.                  ...        0 min,  0.045 sec
     gradient                   ...        0 min,  0.017 sec
 * total energy  :   -82.2708387 Eh     change       -0.1244940E+00 Eh
   gradient norm :     0.8879825 Eh/α   predicted    -0.2832751E+00 ( 127.54%)
   displ. norm   :     0.1078308 α      lambda       -0.9306891E-01
   maximum displ.:     0.0847722 α      in ANC's #174, #173, #108, ...

........................................................................
.............................. CYCLE    3 ..............................
........................................................................
   1    -83.3954211 -0.833954E+02  0.105E-01    3.42       0.0  T
   2    -83.3954344 -0.132915E-04  0.723E-02    3.41       1.0  T
   3    -83.3954081  0.263386E-04  0.531E-02    3.41       1.0  T
   4    -83.3955093 -0.101211E-03  0.731E-03    3.41       1.8  T
   5    -83.3955116 -0.229640E-05  0.273E-03    3.41       4.7  T
   6    -83.3955118 -0.276721E-06  0.131E-03    3.41       9.9  T
   7    -83.3955119 -0.341321E-07  0.343E-04    3.41      37.7  T
   8    -83.3955119 -0.355570E-09  0.109E-04    3.41     118.8  T
     SCC iter.                  ...        0 min,  0.045 sec
     gradient                   ...        0 min,  0.017 sec
 * total energy  :   -82.3180910 Eh     change       -0.4725229E-01 Eh
   gradient norm :     0.0253755 Eh/α   predicted    -0.4710488E-01 (  -0.31%)
   displ. norm   :     0.0377943 α      lambda       -0.7005980E-03
   maximum displ.:     0.0144140 α      in ANC's #36, #28, #108, ...

........................................................................
.............................. CYCLE    4 ..............................
........................................................................
   1    -83.3941362 -0.833941E+02  0.245E-02    3.40       0.0  T
   2    -83.3941377 -0.150635E-05  0.152E-02    3.40       1.0  T
   3    -83.3941337  0.400666E-05  0.108E-02    3.40       1.2  T
   4    -83.3941387 -0.507624E-05  0.217E-03    3.40       5.9  T
   5    -83.3941390 -0.256315E-06  0.484E-04    3.40      26.7  T
   6    -83.3941390 -0.722247E-08  0.280E-04    3.40      46.1  T
     SCC iter.                  ...        0 min,  0.034 sec
     gradient                   ...        0 min,  0.017 sec
 * total energy  :   -82.3186600 Eh     change       -0.5689561E-03 Eh
   gradient norm :     0.0141879 Eh/α   predicted    -0.3508171E-03 ( -38.34%)
   displ. norm   :     0.1297820 α      lambda       -0.1161217E-02
   maximum displ.:     0.0792022 α      in ANC's #1, #36, #28, ...

........................................................................
.............................. CYCLE    5 ..............................
........................................................................
   1    -83.3912349 -0.833912E+02  0.786E-02    3.37       0.0  T
   2    -83.3912406 -0.569344E-05  0.471E-02    3.37       1.0  T
   3    -83.3912066  0.339686E-04  0.256E-02    3.37       1.0  T
   4    -83.3912438 -0.371694E-04  0.434E-03    3.37       3.0  T
   5    -83.3912448 -0.103559E-05  0.104E-03    3.37      12.5  T
   6    -83.3912448 -0.195735E-07  0.619E-04    3.37      20.8  T
   7    -83.3912448 -0.729020E-08  0.198E-04    3.37      65.0  T
     SCC iter.                  ...        0 min,  0.040 sec
     gradient                   ...        0 min,  0.017 sec
 * total energy  :   -82.3190285 Eh     change       -0.3685333E-03 Eh
   gradient norm :     0.0185213 Eh/α   predicted    -0.5905004E-03 (  60.23%)
   displ. norm   :     0.3361364 α      lambda       -0.2324407E-02
   maximum displ.:     0.2768649 α      in ANC's #1, #36, #28, ...

........................................................................
.............................. CYCLE    6 ..............................
........................................................................
   1    -83.3838007 -0.833838E+02  0.202E-01    3.32       0.0  T
   2    -83.3838157 -0.150114E-04  0.121E-01    3.32       1.0  T
   3    -83.3837591  0.566521E-04  0.334E-02    3.32       1.0  T
   4    -83.3838199 -0.608541E-04  0.711E-03    3.32       1.8  T
   5    -83.3838224 -0.242461E-05  0.250E-03    3.32       5.2  T
   6    -83.3838224 -0.628882E-07  0.150E-03    3.32       8.6  T
   7    -83.3838225 -0.752570E-07  0.331E-04    3.32      39.0  T
   8    -83.3838225 -0.229012E-08  0.122E-04    3.32     105.6  T
     SCC iter.                  ...        0 min,  0.045 sec
     gradient                   ...        0 min,  0.017 sec
 * total energy  :   -82.3165184 Eh     change        0.2510142E-02 Eh
   gradient norm :     0.0668188 Eh/α   predicted    -0.1294090E-02 (-151.55%)
   displ. norm   :     0.2212033 α      lambda       -0.6116554E-02
   maximum displ.:     0.1850911 α      in ANC's #1, #36, #28, ...

........................................................................
.............................. CYCLE    7 ..............................
........................................................................
   1    -83.3924182 -0.833924E+02  0.135E-01    3.37       0.0  T
   2    -83.3924275 -0.921674E-05  0.810E-02    3.36       1.0  T
   3    -83.3924165  0.109270E-04  0.148E-02    3.37       1.0  T
   4    -83.3924285 -0.119836E-04  0.504E-03    3.37       2.6  T
   5    -83.3924297 -0.117622E-05  0.163E-03    3.37       7.9  T
   6    -83.3924297 -0.337171E-08  0.943E-04    3.37      13.7  T
   7    -83.3924297 -0.393306E-07  0.292E-04    3.37      44.2  T
     SCC iter.                  ...        0 min,  0.039 sec
     gradient                   ...        0 min,  0.017 sec
 * total energy  :   -82.3195400 Eh     change       -0.3021651E-02 Eh
   gradient norm :     0.0304337 Eh/α   predicted    -0.3205335E-02 (   6.08%)
   displ. norm   :     0.0258043 α      lambda       -0.3055012E-03
   maximum displ.:     0.0175538 α      in ANC's #1, #28, #108, ...

........................................................................
.............................. CYCLE    8 ..............................
........................................................................
   1    -83.3934952 -0.833935E+02  0.154E-02    3.37       0.0  T
   2    -83.3934958 -0.600991E-06  0.968E-03    3.36       1.3  T
   3    -83.3934946  0.118327E-05  0.643E-03    3.36       2.0  T
   4    -83.3934962 -0.158198E-05  0.151E-03    3.36       8.5  T
   5    -83.3934963 -0.127859E-06  0.335E-04    3.36      38.5  T
   6    -83.3934963 -0.409403E-08  0.181E-04    3.36      71.1  T
     SCC iter.                  ...        0 min,  0.034 sec
     gradient                   ...        0 min,  0.017 sec
 * total energy  :   -82.3197217 Eh     change       -0.1816866E-03 Eh
   gradient norm :     0.0143100 Eh/α   predicted    -0.1554265E-03 ( -14.45%)
   displ. norm   :     0.0595231 α      lambda       -0.2624945E-03
   maximum displ.:     0.0339841 α      in ANC's #28, #36, #17, ...

........................................................................
.............................. CYCLE    9 ..............................
........................................................................
   1    -83.3944632 -0.833945E+02  0.283E-02    3.36       0.0  T
   2    -83.3944635 -0.353672E-06  0.167E-02    3.36       1.0  T
   3    -83.3944614  0.209481E-05  0.619E-03    3.36       2.1  T
   4    -83.3944637 -0.225084E-05  0.125E-03    3.36      10.3  T
   5    -83.3944638 -0.837415E-07  0.289E-04    3.36      44.6  T
   6    -83.3944638 -0.553939E-10  0.178E-04    3.36      72.4  T
     SCC iter.                  ...        0 min,  0.034 sec
     gradient                   ...        0 min,  0.017 sec
 * total energy  :   -82.3199493 Eh     change       -0.2276407E-03 Eh
   gradient norm :     0.0131771 Eh/α   predicted    -0.1322029E-03 ( -41.92%)
   displ. norm   :     0.2129854 α      lambda       -0.7315526E-03
   maximum displ.:     0.1242581 α      in ANC's #28, #36, #17, ...

........................................................................
.............................. CYCLE   10 ..............................
........................................................................
   1    -83.3962951 -0.833963E+02  0.100E-01    3.35       0.0  T
   2    -83.3962985 -0.338328E-05  0.593E-02    3.34       1.0  T
   3    -83.3962576  0.408929E-04  0.273E-02    3.34       1.0  T
   4    -83.3963020 -0.443933E-04  0.349E-03    3.34       3.7  T
   5    -83.3963026 -0.608441E-06  0.100E-03    3.34      12.9  T
   6    -83.3963026 -0.419462E-08  0.611E-04    3.34      21.1  T
   7    -83.3963026 -0.905337E-08  0.201E-04    3.34      64.1  T
     SCC iter.                  ...        0 min,  0.039 sec
     gradient                   ...        0 min,  0.017 sec
 * total energy  :   -82.3203821 Eh     change       -0.4327972E-03 Eh
   gradient norm :     0.0079954 Eh/α   predicted    -0.3879611E-03 ( -10.36%)
   displ. norm   :     0.0584323 α      lambda       -0.9928921E-04
   maximum displ.:     0.0359815 α      in ANC's #28, #36, #17, ...

........................................................................
.............................. CYCLE   11 ..............................
........................................................................
   1    -83.3970289 -0.833970E+02  0.264E-02    3.34       0.0  T
   2    -83.3970291 -0.140377E-06  0.158E-02    3.34       1.0  T
   3    -83.3970246  0.446217E-05  0.889E-03    3.34       1.5  T
   4    -83.3970295 -0.486538E-05  0.658E-04    3.34      19.6  T
   5    -83.3970295 -0.169749E-07  0.244E-04    3.34      52.8  T
   6    -83.3970295 -0.726743E-10  0.138E-04    3.34      93.5  T
     SCC iter.                  ...        0 min,  0.033 sec
     gradient                   ...        0 min,  0.017 sec
 * total energy  :   -82.3204602 Eh     change       -0.7806971E-04 Eh
   gradient norm :     0.0057710 Eh/α   predicted    -0.4939002E-04 ( -36.74%)
   displ. norm   :     0.0945934 α      lambda       -0.1699179E-03
   maximum displ.:     0.0585346 α      in ANC's #28, #17, #14, ...

........................................................................
.............................. CYCLE   12 ..............................
........................................................................
   1    -83.3984522 -0.833985E+02  0.410E-02    3.33       0.0  T
   2    -83.3984524 -0.148377E-06  0.250E-02    3.33       1.0  T
   3    -83.3984377  0.146482E-04  0.161E-02    3.33       1.0  T
   4    -83.3984539 -0.161356E-04  0.861E-04    3.33      15.0  T
   5    -83.3984539 -0.225102E-07  0.389E-04    3.33      33.2  T
   6    -83.3984539 -0.596728E-09  0.245E-04    3.33      52.8  T
     SCC iter.                  ...        0 min,  0.034 sec
     gradient                   ...        0 min,  0.017 sec
 * total energy  :   -82.3205735 Eh     change       -0.1132827E-03 Eh
   gradient norm :     0.0042794 Eh/α   predicted    -0.8421581E-04 ( -25.66%)
   displ. norm   :     0.0509470 α      lambda       -0.7621689E-04
   maximum displ.:     0.0290392 α      in ANC's #28, #17, #14, ...

........................................................................
.............................. CYCLE   13 ..............................
........................................................................
   1    -83.3992493 -0.833992E+02  0.211E-02    3.33       0.0  T
   2    -83.3992494 -0.286960E-07  0.130E-02    3.33       1.0  T
   3    -83.3992451  0.426032E-05  0.869E-03    3.33       1.5  T
   4    -83.3992498 -0.474007E-05  0.580E-04    3.33      22.3  T
   5    -83.3992499 -0.141757E-07  0.229E-04    3.33      56.3  T
   6    -83.3992499 -0.570452E-09  0.107E-04    3.33     120.6  T
     SCC iter.                  ...        0 min,  0.035 sec
     gradient                   ...        0 min,  0.017 sec
 * total energy  :   -82.3206273 Eh     change       -0.5378122E-04 Eh
   gradient norm :     0.0038355 Eh/α   predicted    -0.3817837E-04 ( -29.01%)
   displ. norm   :     0.0336203 α      lambda       -0.4835472E-04
   maximum displ.:     0.0135768 α      in ANC's #28, #17, #14, ...

........................................................................
.............................. CYCLE   14 ..............................
........................................................................
   1    -83.3994878 -0.833995E+02  0.138E-02    3.33       0.0  T
   2    -83.3994878 -0.671890E-07  0.839E-03    3.33       1.5  T
   3    -83.3994867  0.117565E-05  0.466E-03    3.33       2.8  T
   4    -83.3994880 -0.129002E-05  0.599E-04    3.33      21.5  T
   5    -83.3994880 -0.192463E-07  0.205E-04    3.33      63.1  T
   6    -83.3994880 -0.781256E-09  0.987E-05    3.33     130.9  T
     SCC iter.                  ...        0 min,  0.035 sec
     gradient                   ...        0 min,  0.016 sec
 * total energy  :   -82.3206611 Eh     change       -0.3383779E-04 Eh
   gradient norm :     0.0028229 Eh/α   predicted    -0.2420354E-04 ( -28.47%)
   displ. norm   :     0.0259346 α      lambda       -0.3208478E-04
   maximum displ.:     0.0130542 α      in ANC's #36, #17, #14, ...

........................................................................
.............................. CYCLE   15 ..............................
........................................................................
   1    -83.3992342 -0.833992E+02  0.106E-02    3.33       0.0  T
   2    -83.3992343 -0.798134E-07  0.630E-03    3.33       2.1  T
   3    -83.3992340  0.287640E-06  0.262E-03    3.33       4.9  T
   4    -83.3992344 -0.325052E-06  0.354E-04    3.33      36.5  T
   5    -83.3992344 -0.546223E-08  0.177E-04    3.33      72.7  T
     SCC iter.                  ...        0 min,  0.030 sec
     gradient                   ...        0 min,  0.017 sec
 * total energy  :   -82.3206841 Eh     change       -0.2296319E-04 Eh
   gradient norm :     0.0022452 Eh/α   predicted    -0.1605537E-04 ( -30.08%)
   displ. norm   :     0.0248422 α      lambda       -0.2584780E-04
   maximum displ.:     0.0128938 α      in ANC's #36, #14, #17, ...

........................................................................
.............................. CYCLE   16 ..............................
........................................................................
   1    -83.3986945 -0.833987E+02  0.931E-03    3.33       0.0  T
   2    -83.3986946 -0.756725E-07  0.562E-03    3.33       2.3  T
   3    -83.3986943  0.351869E-06  0.287E-03    3.33       4.5  T
   4    -83.3986947 -0.406569E-06  0.330E-04    3.33      39.1  T
   5    -83.3986947 -0.352297E-08  0.151E-04    3.33      85.4  T
     SCC iter.                  ...        0 min,  0.029 sec
     gradient                   ...        0 min,  0.016 sec
 * total energy  :   -82.3207027 Eh     change       -0.1858853E-04 Eh
   gradient norm :     0.0022743 Eh/α   predicted    -0.1293625E-04 ( -30.41%)
   displ. norm   :     0.0253702 α      lambda       -0.2195160E-04
   maximum displ.:     0.0100242 α      in ANC's #36, #17, #14, ...

........................................................................
.............................. CYCLE   17 ..............................
........................................................................
   1    -83.3981326 -0.833981E+02  0.880E-03    3.34       0.0  T
   2    -83.3981327 -0.663586E-07  0.533E-03    3.34       2.4  T
   3    -83.3981324  0.273733E-06  0.248E-03    3.34       5.2  T
   4    -83.3981327 -0.315117E-06  0.297E-04    3.34      43.5  T
   5    -83.3981327 -0.356287E-08  0.126E-04    3.34     102.3  T
     SCC iter.                  ...        0 min,  0.029 sec
     gradient                   ...        0 min,  0.017 sec
 * total energy  :   -82.3207185 Eh     change       -0.1580035E-04 Eh
   gradient norm :     0.0022210 Eh/α   predicted    -0.1099219E-04 ( -30.43%)
   displ. norm   :     0.0260160 α      lambda       -0.1786683E-04
   maximum displ.:     0.0108079 α      in ANC's #17, #14, #12, ...

........................................................................
.............................. CYCLE   18 ..............................
........................................................................
   1    -83.3978314 -0.833978E+02  0.935E-03    3.34       0.0  T
   2    -83.3978314 -0.526488E-07  0.559E-03    3.34       2.3  T
   3    -83.3978312  0.189235E-06  0.191E-03    3.34       6.8  T
   4    -83.3978314 -0.206404E-06  0.403E-04    3.34      32.0  T
   5    -83.3978314 -0.779926E-08  0.124E-04    3.34     104.2  T
     SCC iter.                  ...        0 min,  0.029 sec
     gradient                   ...        0 min,  0.017 sec
 * total energy  :   -82.3207310 Eh     change       -0.1254981E-04 Eh
   gradient norm :     0.0018209 Eh/α   predicted    -0.8950810E-05 ( -28.68%)
   displ. norm   :     0.0320893 α      lambda       -0.1167422E-04
   maximum displ.:     0.0136061 α      in ANC's #17, #14, #12, ...

........................................................................
.............................. CYCLE   19 ..............................
........................................................................
   1    -83.3979786 -0.833980E+02  0.123E-02    3.34       0.0  T
   2    -83.3979787 -0.616651E-07  0.734E-03    3.34       1.8  T
   3    -83.3979782  0.477091E-06  0.289E-03    3.34       4.5  T
   4    -83.3979787 -0.513108E-06  0.478E-04    3.34      27.0  T
   5    -83.3979787 -0.100558E-07  0.138E-04    3.34      93.9  T
     SCC iter.                  ...        0 min,  0.032 sec
     gradient                   ...        0 min,  0.017 sec
 * total energy  :   -82.3207405 Eh     change       -0.9439066E-05 Eh
   gradient norm :     0.0014065 Eh/α   predicted    -0.5845019E-05 ( -38.08%)
   displ. norm   :     0.0071983 α      lambda       -0.4138667E-05
   maximum displ.:     0.0020635 α      in ANC's #14, #12, #11, ...

........................................................................
.............................. CYCLE   20 ..............................
........................................................................
   1    -83.3984434 -0.833984E+02  0.351E-03    3.34       0.0  T
   2    -83.3984435 -0.153387E-07  0.217E-03    3.34       6.0  T
   3    -83.3984434  0.572988E-07  0.123E-03    3.34      10.5  T
   4    -83.3984435 -0.711036E-07  0.148E-04    3.34      87.3  T
   5    -83.3984435 -0.884725E-09  0.541E-05    3.34     238.6  T
     SCC iter.                  ...        0 min,  0.030 sec
     gradient                   ...        0 min,  0.017 sec
 * total energy  :   -82.3207451 Eh     change       -0.4680646E-05 Eh
   gradient norm :     0.0008549 Eh/α   predicted    -0.2075450E-05 ( -55.66%)
   displ. norm   :     0.0139714 α      lambda       -0.4502848E-05
   maximum displ.:     0.0051127 α      in ANC's #14, #12, #11, ...

   *** GEOMETRY OPTIMIZATION CONVERGED AFTER 20 ITERATIONS ***

------------------------------------------------------------------------
 total energy gain   :        -0.1744004 Eh     -109.4379 kcal/mol
 total RMSD          :         0.0984163 a0        0.0521 Å
 total power (kW/mol):       -22.8944066 (step) -397.9345 (real)
------------------------------------------------------------------------

 ANCopt (total)                0 d,  0 h,  0 min,  1.151 sec
 optimizer setup                ...        0 min,  0.000 sec (  0.008%)
 model hessian                  ...        0 min,  0.031 sec (  2.660%)
 ANC generation                 ...        0 min,  0.005 sec (  0.448%)
 coordinate transformation      ...        0 min,  0.001 sec (  0.059%)
 single point calculation       ...        0 min,  1.106 sec ( 96.090%)
 optimization log               ...        0 min,  0.004 sec (  0.375%)
 hessian update                 ...        0 min,  0.001 sec (  0.049%)
 rational function              ...        0 min,  0.003 sec (  0.227%)

================
 final structure:
================
60
 xtb: 6.5.0 (homebrew)
C            3.60796547373563      -37.65067380738201       15.81826711556698
C            3.78916539927499      -38.09368966438800       17.26815107975452
O            3.30925192547257      -37.06923629440831       18.14084081503392
C            2.93174422016382      -39.33946456319963       17.52385094921670
C            5.28147294997266      -38.27600249095480       17.72591404435865
C            5.77159191614695      -39.72096946292472       17.77434638732408
C            6.26322028415258      -37.43639464811157       16.89909507132231
O            5.28243303605493      -37.72830689806687       19.04574875873651
B            4.16697035454448      -36.95729504868361       19.20176692057870
C            3.89720995670984      -36.03849475742178       20.43773365141739
C            4.86581218429858      -36.11426816580105       21.53598905314204
C            4.87065570014414      -35.41430025440090       22.66574889515568
H            5.65139004778769      -35.59244968014328       23.39144204419655
C            3.86040425447327      -34.34963673518919       23.02417089930977
H            4.11439966730081      -33.93849984884501       24.00328322517639
C            2.48330429964788      -34.97554781593060       23.12973587815122
B            1.74988384227660      -34.93218837161593       24.50463072082140
O            2.27744837046700      -34.37681665952220       25.63835624767623
C            1.41189813568767      -34.66147629911770       26.73610515242458
C            1.30364404139990      -33.43243049732055       27.63588357693640
C            2.05650486282024      -35.80732314252833       27.52685175753341
C            0.07289300411586      -35.08661232507124       26.03153041604345
C           -0.91658405477616      -33.92418906688322       25.87795082136681
C           -0.64747682567152      -36.26779881573234       26.67797951815537
O            0.49960512137919      -35.44641701829694       24.71827375683617
C            1.90091477458026      -35.57319018962644       22.08022922257651
C            2.42240566325756      -35.70991631737138       20.72137656401651
H            1.74087910087618      -36.22191597584172       20.05125886615222
C            3.23047354545300      -34.62671277956888       20.05396226703926
C            3.60043732899389      -33.38430645341287       20.71968221054504
C            3.85317149978982      -33.22614583236516       22.01563396704048
H            4.09893142903023      -32.24258243258443       22.38983387299541
H            2.54481747972234      -37.57664690153722       15.60292895925581
H            4.05318729657071      -38.37770774092072       15.14462811837551
H            4.05425062068182      -36.67655526461283       15.64643222299416
H            1.88961794891839      -39.08597564281381       17.34299685092800
H            3.02624430372473      -39.65552528461159       18.55973708881810
H            3.21651460233798      -40.15312171444843       16.86353147571731
H            5.69707081991413      -40.17769356926840       16.79110899845481
H            5.20178453462275      -40.30494072575407       18.48973471359352
H            6.81265194906267      -39.72832051105348       18.08742555502095
H            6.35191520198340      -37.81730269133627       15.88617813440714
H            7.23822067575165      -37.47407877242863       17.37930324673414
H            5.94167698992079      -36.39807260759638       16.87617073728444
H            5.64366833121414      -36.84855872750743       21.36689492589805
H            2.27433540553759      -33.23688798646399       28.08483723890963
H            0.58018310711604      -33.60989821427405       28.42720765748274
H            1.01217611172767      -32.55444334576129       27.06866909717020
H            3.05140112972210      -35.49660606049351       27.83756468774296
H            2.16113138714042      -36.68619758539215       26.89556766298348
H            1.47189695509541      -36.05393746713943       28.40813071708204
H           -1.31690486609889      -33.62013324671751       26.84051808353179
H           -1.73535678970861      -34.25123610084450       25.24116119405916
H           -0.43346628485039      -33.07872354894099       25.39479878163873
H           -0.89740249170064      -36.03505642094053       27.70965510882459
H           -0.03906610900367      -37.16558840330816       26.64506734505331
H           -1.56536766866088      -36.46284342131071       26.12908172047846
H            0.92252741180481      -36.00952769869111       22.23852888485373
H            3.06062397650318      -34.53597537002025       18.98977272057755
H            3.64337646138978      -32.52015266310183       20.06667434552893

 Bond Distances (Angstroems)
 ---------------------------
C1-C2=1.5268         C1-H33=1.0873        C1-H34=1.0865        C1-H35=1.0852        C2-C1=1.5268         C2-O3=1.4288         
C2-C4=1.5338         C2-C5=1.5715         O3-C2=1.4288         O3-B9=1.3689         C4-C2=1.5338         C4-H36=1.0877        
C4-H37=1.0871        C4-H38=1.0859        C5-C2=1.5715         C5-C6=1.5266         C5-C7=1.5338         C5-O8=1.4290         
C6-C5=1.5266         C6-H39=1.0867        C6-H40=1.0851        C6-H41=1.0871        C7-C5=1.5338         C7-H42=1.0858        
C7-H43=1.0875        C7-H44=1.0872        O8-C5=1.4290         O8-B9=1.3649         B9-O3=1.3689         B9-O8=1.3649         
B9-C10=1.5635        C10-B9=1.5635        C10-C11=1.4663       C10-C27=1.5374       C10-C29=1.6078       C11-C10=1.4663       
C11-C12=1.3290       C11-H45=1.0830       C12-C11=1.3290       C12-H13=1.0807       C12-C14=1.5108       H13-C12=1.0807       
C14-C12=1.5108       C14-H15=1.0919       C14-C16=1.5163       C14-C31=1.5098       H15-C14=1.0919       C16-C14=1.5163       
C16-B17=1.5589       C16-C26=1.3408       B17-C16=1.5589       B17-O18=1.3682       B17-O25=1.3687       O18-B17=1.3682       
O18-C19=1.4266       C19-O18=1.4266       C19-C20=1.5270       C19-C21=1.5342       C19-C22=1.5717       C20-C19=1.5270       
C20-H46=1.0872       C20-H47=1.0868       C20-H48=1.0851       C21-C19=1.5342       C21-H49=1.0876       C21-H50=1.0871       
C21-H51=1.0859       C22-C19=1.5717       C22-C23=1.5342       C22-C24=1.5271       C22-O25=1.4269       C23-C22=1.5342       
C23-H52=1.0859       C23-H53=1.0876       C23-H54=1.0870       C24-C22=1.5271       C24-H55=1.0867       C24-H56=1.0850       
C24-H57=1.0871       O25-B17=1.3687       O25-C22=1.4269       C26-C16=1.3408       C26-C27=1.4619       C26-H58=1.0829       
C27-C10=1.5374       C27-C26=1.4619       C27-H28=1.0843       C27-C29=1.5072       H28-C27=1.0843       C29-C10=1.6078       
C29-C27=1.5072       C29-C30=1.4573       C29-H59=1.0815       C30-C29=1.4573       C30-C31=1.3298       C30-H60=1.0840       
C31-C14=1.5098       C31-C30=1.3298       C31-H32=1.0807       H32-C31=1.0807       H33-C1=1.0873        H34-C1=1.0865        
H35-C1=1.0852        H36-C4=1.0877        H37-C4=1.0871        H38-C4=1.0859        H39-C6=1.0867        H40-C6=1.0851        
H41-C6=1.0871        H42-C7=1.0858        H43-C7=1.0875        H44-C7=1.0872        H45-C11=1.0830       H46-C20=1.0872       
H47-C20=1.0868       H48-C20=1.0851       H49-C21=1.0876       H50-C21=1.0871       H51-C21=1.0859       H52-C23=1.0859       
H53-C23=1.0876       H54-C23=1.0870       H55-C24=1.0867       H56-C24=1.0850       H57-C24=1.0871       H58-C26=1.0829       
H59-C29=1.0815       H60-C30=1.0840       
 C  H  Rav=1.0859 sigma=0.0023  Rmin=1.0807  Rmax=1.0919    32
 C  B  Rav=1.5612 sigma=0.0023  Rmin=1.5589  Rmax=1.5635     2
 C  C  Rav=1.4982 sigma=0.0736  Rmin=1.3290  Rmax=1.6078    22
 O  B  Rav=1.3677 sigma=0.0016  Rmin=1.3649  Rmax=1.3689     4
 O  C  Rav=1.4278 sigma=0.0010  Rmin=1.4266  Rmax=1.4290     4

 selected bond angles (degree)
 --------------------
H33-C1-C2=108.90               H34-C1-C2=110.24               H34-C1-H33=108.87              H35-C1-C2=111.22               
H35-C1-H33=108.04              H35-C1-H34=109.51              O3-C2-C1=109.40                C4-C2-C1=109.13                
C4-C2-O3=107.02                C5-C2-C1=115.02                C5-C2-O3=102.96                C5-C2-C4=112.83                
B9-O3-C2=108.76                H36-C4-C2=108.58               H37-C4-C2=110.27               H37-C4-H36=108.03              
H38-C4-C2=111.14               H38-C4-H36=108.95              H38-C4-H37=109.80              C6-C5-C2=115.08                
C7-C5-C2=112.79                C7-C5-C6=109.25                O8-C5-C2=103.02                O8-C5-C6=109.47                
O8-C5-C7=106.72                H39-C6-C5=110.31               H40-C6-C5=111.21               H40-C6-H39=109.53              
H41-C6-C5=108.84               H41-C6-H39=108.87              H41-C6-H40=108.02              H42-C7-C5=111.29               
H43-C7-C5=108.47               H43-C7-H42=109.06              H44-C7-C5=110.17               H44-C7-H42=109.85              
H44-C7-H43=107.91              B9-O8-C5=108.76                O8-B9-O3=112.17                C10-B9-O3=123.55               
C10-B9-O8=124.28               C11-C10-B9=116.60              C27-C10-B9=115.91              C27-C10-C11=120.43             
C29-C10-B9=113.51              C29-C10-C11=119.87             C29-C10-C27= 57.22             

 selected dihedral angles (degree)
 ---------------------------------
O3-C2-C1-H33=294.06           O3-C2-C1-H34=174.68           O3-C2-C1-H35= 53.01           C4-C2-C1-H33= 50.84           
C4-C2-C1-H34=291.47           C4-C2-C1-H35=169.80           C5-C2-C1-H33=178.81           C5-C2-C1-H34= 59.43           
C5-C2-C1-H35=297.76           B9-O3-C2-C1=220.43            B9-O3-C2-C4=102.33            B9-O3-C2-C5=343.19            
H36-C4-C2-C1=299.69           H36-C4-C2-O3= 57.97           H36-C4-C2-C5=170.51           H37-C4-C2-C1=181.52           
H37-C4-C2-O3=299.80           H37-C4-C2-C5= 52.34           H38-C4-C2-C1= 59.52           H38-C4-C2-O3=177.80           
H38-C4-C2-C5=290.34           C6-C5-C2-C1=258.50            C6-C5-C2-O3=139.59            C6-C5-C2-C4= 24.58            
C7-C5-C2-C1= 24.77            C7-C5-C2-O3=265.86            C7-C5-C2-C4=150.84            O8-C5-C2-C1=139.44            
O8-C5-C2-O3= 20.52            O8-C5-C2-C4=265.51            H39-C6-C5-C2= 59.82           H39-C6-C5-C7=291.76           
H39-C6-C5-O8=175.23           H40-C6-C5-C2=298.08           H40-C6-C5-C7=170.03           H40-C6-C5-O8= 53.50           
H41-C6-C5-C2=179.20           H41-C6-C5-C7= 51.15           H41-C6-C5-O8=294.62           H42-C7-C5-C2=290.02           
H42-C7-C5-C6= 59.35           H42-C7-C5-O8=177.61           H43-C7-C5-C2=170.04           H43-C7-C5-C6=299.37           
H43-C7-C5-O8= 57.63           H44-C7-C5-C2= 52.12           H44-C7-C5-C6=181.45           H44-C7-C5-O8=299.71           
B9-O8-C5-C2=342.66            B9-O8-C5-C6=219.76            B9-O8-C5-C7=101.64            O8-B9-O3-C2=  6.85            
C10-B9-O3-C2=186.27           O3-B9-O8-C5=  7.74            C10-B9-O8-C5=188.32           C11-C10-B9-O3=175.33          
C11-C10-B9-O8=354.68          C27-C10-B9-O3= 24.51          C27-C10-B9-O8=203.87          C29-C10-B9-O3=320.94          
C29-C10-B9-O8=140.30          
           -------------------------------------------------
          |                Final Singlepoint                |
           -------------------------------------------------

          ...................................................
          :                      SETUP                      :
          :.................................................:
          :  # basis functions                 144          :
          :  # atomic orbitals                 144          :
          :  # shells                           88          :
          :  # electrons                       150          :
          :  max. iterations                   250          :
          :  Hamiltonian                  GFN2-xTB          :
          :  restarted?                      false          :
          :  GBSA solvation                  false          :
          :  PC potential                    false          :
          :  electronic temp.          300.0000000     K    :
          :  accuracy                    1.0000000          :
          :  -> integral cutoff          0.2500000E+02      :
          :  -> integral neglect         0.1000000E-07      :
          :  -> SCF convergence          0.1000000E-05 Eh   :
          :  -> wf. convergence          0.1000000E-03 e    :
          :  Broyden damping             0.4000000          :
          ...................................................

 iter      E             dE          RMSdq      gap      omega  full diag
   1    -83.3984435 -0.833984E+02  0.344E-05    3.34       0.0  T
   2    -83.3984435  0.962075E-11  0.287E-05    3.34     450.3  T
   3    -83.3984435 -0.420926E-10  0.130E-05    3.34     995.9  T

   *** convergence criteria satisfied after 3 iterations ***

         #    Occupation            Energy/Eh            Energy/eV
      -------------------------------------------------------------
         1        2.0000           -0.6925188             -18.8444
       ...           ...                  ...                  ...
        69        2.0000           -0.4022028             -10.9445
        70        2.0000           -0.4001933             -10.8898
        71        2.0000           -0.3974546             -10.8153
        72        2.0000           -0.3951179             -10.7517
        73        2.0000           -0.3884882             -10.5713
        74        2.0000           -0.3560827              -9.6895
        75        2.0000           -0.3460815              -9.4174 (HOMO)
        76                         -0.2234193              -6.0795 (LUMO)
        77                         -0.1979971              -5.3878
        78                         -0.1821541              -4.9567
        79                         -0.1467111              -3.9922
        80                         -0.0944214              -2.5693
       ...                                ...                  ...
       144                          0.6693163              18.2130
      -------------------------------------------------------------
                  HL-Gap            0.1226621 Eh            3.3378 eV
             Fermi-level           -0.2847504 Eh           -7.7485 eV

 SCC (total)                   0 d,  0 h,  0 min,  0.039 sec
 SCC setup                      ...        0 min,  0.000 sec (  0.438%)
 Dispersion                     ...        0 min,  0.000 sec (  0.965%)
 classical contributions        ...        0 min,  0.000 sec (  0.337%)
 integral evaluation            ...        0 min,  0.003 sec (  8.295%)
 iterations                     ...        0 min,  0.019 sec ( 47.497%)
 molecular gradient             ...        0 min,  0.017 sec ( 41.792%)
 printout                       ...        0 min,  0.000 sec (  0.663%)

         :::::::::::::::::::::::::::::::::::::::::::::::::::::
         ::                     SUMMARY                     ::
         :::::::::::::::::::::::::::::::::::::::::::::::::::::
         :: total energy             -82.320745138474 Eh    ::
         :: gradient norm              0.000855241313 Eh/a0 ::
         :: HOMO-LUMO gap              3.337806223783 eV    ::
         ::.................................................::
         :: SCC energy               -83.398443471972 Eh    ::
         :: -> isotropic ES            0.148269078678 Eh    ::
         :: -> anisotropic ES          0.011282372563 Eh    ::
         :: -> anisotropic XC          0.027026239757 Eh    ::
         :: -> dispersion             -0.061940935207 Eh    ::
         :: repulsion energy           1.076943467336 Eh    ::
         :: add. restraining           0.000083567996 Eh    ::
         :: total charge               0.000000000000 e     ::
         :::::::::::::::::::::::::::::::::::::::::::::::::::::

           -------------------------------------------------
          |                Property Printout                |
           -------------------------------------------------

    * Orbital Energies and Occupations

         #    Occupation            Energy/Eh            Energy/eV
      -------------------------------------------------------------
         1        2.0000           -0.6925188             -18.8444
       ...           ...                  ...                  ...
        63        2.0000           -0.4346905             -11.8285
        64        2.0000           -0.4333264             -11.7914
        65        2.0000           -0.4316586             -11.7460
        66        2.0000           -0.4233331             -11.5195
        67        2.0000           -0.4187303             -11.3942
        68        2.0000           -0.4127034             -11.2302
        69        2.0000           -0.4022028             -10.9445
        70        2.0000           -0.4001933             -10.8898
        71        2.0000           -0.3974546             -10.8153
        72        2.0000           -0.3951179             -10.7517
        73        2.0000           -0.3884882             -10.5713
        74        2.0000           -0.3560827              -9.6895
        75        2.0000           -0.3460815              -9.4174 (HOMO)
        76                         -0.2234193              -6.0795 (LUMO)
        77                         -0.1979971              -5.3878
        78                         -0.1821541              -4.9567
        79                         -0.1467111              -3.9922
        80                         -0.0944214              -2.5693
        81                          0.0028626               0.0779
        82                          0.0058887               0.1602
        83                          0.0110842               0.3016
        84                          0.0252010               0.6858
        85                          0.0304757               0.8293
        86                          0.0529034               1.4396
       ...                                ...                  ...
       144                          0.6693163              18.2130
      -------------------------------------------------------------
                  HL-Gap            0.1226621 Eh            3.3378 eV
             Fermi-level           -0.2847504 Eh           -7.7485 eV

     #   Z          covCN         q      C6AA      α(0)
     1   6 C        3.755    -0.117    22.802     6.809
     2   6 C        3.858     0.130    18.441     6.107
     3   8 O        1.638    -0.379    20.455     6.105
     4   6 C        3.755    -0.116    22.783     6.806
     5   6 C        3.861     0.129    18.448     6.108
     6   6 C        3.755    -0.118    22.811     6.810
     7   6 C        3.755    -0.116    22.785     6.806
     8   8 O        1.638    -0.371    20.314     6.084
     9   5 B        2.657     0.440    15.475     6.624
    10   6 C        3.820    -0.065    21.723     6.633
    11   6 C        2.890    -0.041    29.005     8.830
    12   6 C        2.896    -0.038    28.941     8.820
    13   1 H        0.926     0.025     2.662     2.551
    14   6 C        3.864    -0.017    20.842     6.492
    15   1 H        0.924     0.042     2.417     2.431
    16   6 C        2.872    -0.082    30.059     8.987
    17   5 B        2.660     0.432    15.561     6.641
    18   8 O        1.638    -0.370    20.291     6.080
    19   6 C        3.859     0.129    18.454     6.109
    20   6 C        3.755    -0.117    22.793     6.807
    21   6 C        3.755    -0.116    22.771     6.804
    22   6 C        3.859     0.129    18.450     6.109
    23   6 C        3.755    -0.116    22.777     6.805
    24   6 C        3.755    -0.117    22.800     6.808
    25   8 O        1.638    -0.374    20.357     6.090
    26   6 C        2.895    -0.030    28.745     8.790
    27   6 C        3.859    -0.008    20.686     6.468
    28   1 H        0.925     0.040     2.447     2.446
    29   6 C        3.849    -0.014    20.785     6.485
    30   6 C        2.889    -0.036    28.887     8.812
    31   6 C        2.896    -0.035    28.870     8.810
    32   1 H        0.926     0.026     2.647     2.544
    33   1 H        0.925     0.055     2.261     2.351
    34   1 H        0.925     0.040     2.443     2.444
    35   1 H        0.925     0.052     2.295     2.369
    36   1 H        0.925     0.052     2.291     2.367
    37   1 H        0.925     0.044     2.397     2.421
    38   1 H        0.925     0.043     2.406     2.425
    39   1 H        0.925     0.041     2.441     2.443
    40   1 H        0.925     0.053     2.286     2.364
    41   1 H        0.925     0.056     2.252     2.347
    42   1 H        0.925     0.043     2.404     2.425
    43   1 H        0.925     0.053     2.277     2.360
    44   1 H        0.925     0.044     2.401     2.423
    45   1 H        0.925     0.033     2.541     2.493
    46   1 H        0.925     0.054     2.269     2.356
    47   1 H        0.925     0.039     2.460     2.453
    48   1 H        0.925     0.052     2.299     2.371
    49   1 H        0.925     0.052     2.296     2.369
    50   1 H        0.925     0.043     2.404     2.425
    51   1 H        0.925     0.042     2.424     2.435
    52   1 H        0.925     0.042     2.418     2.432
    53   1 H        0.925     0.052     2.298     2.370
    54   1 H        0.925     0.043     2.404     2.425
    55   1 H        0.925     0.040     2.455     2.450
    56   1 H        0.925     0.052     2.298     2.371
    57   1 H        0.925     0.054     2.272     2.357
    58   1 H        0.925     0.036     2.505     2.475
    59   1 H        0.925     0.037     2.493     2.469
    60   1 H        0.925     0.024     2.669     2.555

 Mol. C6AA /au·bohr⁶  :      32802.903404
 Mol. C8AA /au·bohr⁸  :     759436.379853
 Mol. α(0) /au        :        273.158840


Wiberg/Mayer (AO) data.
largest (>0.10) Wiberg bond orders for each atom

 ---------------------------------------------------------------------------
     #   Z sym  total        # sym  WBO       # sym  WBO       # sym  WBO
 ---------------------------------------------------------------------------
     1   6 C    3.994 --     2 C    0.997    34 H    0.984    33 H    0.982
                            35 H    0.982
     2   6 C    3.942 --     1 C    0.997     4 C    0.991     3 O    0.950
                             5 C    0.937
     3   8 O    2.224 --     9 B    1.125     2 C    0.950
     4   6 C    3.995 --     2 C    0.991    38 H    0.984    37 H    0.984
                            36 H    0.983
     5   6 C    3.941 --     6 C    0.997     7 C    0.991     8 O    0.949
                             2 C    0.937
     6   6 C    3.994 --     5 C    0.997    39 H    0.984    41 H    0.982
                            40 H    0.982
     7   6 C    3.995 --     5 C    0.991    42 H    0.984    44 H    0.984
                            43 H    0.983
     8   8 O    2.233 --     9 B    1.136     5 C    0.949
     9   5 B    3.378 --     8 O    1.136     3 O    1.125    10 C    1.001
    10   6 C    3.923 --    11 C    1.078     9 B    1.001    27 C    0.858
                            29 C    0.812
    11   6 C    3.990 --    12 C    1.865    10 C    1.078    45 H    0.963
    12   6 C    3.989 --    11 C    1.865    14 C    0.984    13 H    0.969
    13   1 H    0.999 --    12 C    0.969
    14   6 C    3.996 --    31 C    0.986    12 C    0.984    15 H    0.973
                            16 C    0.971
    15   1 H    0.998 --    14 C    0.973
    16   6 C    3.975 --    26 C    1.796    17 B    1.003    14 C    0.971
    17   5 B    3.375 --    18 O    1.128    25 O    1.125    16 C    1.003
    18   8 O    2.234 --    17 B    1.128    19 C    0.954
    19   6 C    3.944 --    20 C    0.997    21 C    0.990    18 O    0.954
                            22 C    0.937
    20   6 C    3.994 --    19 C    0.997    47 H    0.985    46 H    0.983
                            48 H    0.982
    21   6 C    3.994 --    19 C    0.990    51 H    0.985    50 H    0.984
                            49 H    0.983
    22   6 C    3.943 --    24 C    0.996    23 C    0.990    25 O    0.954
                            19 C    0.937
    23   6 C    3.995 --    22 C    0.990    52 H    0.984    54 H    0.984
                            53 H    0.983
    24   6 C    3.994 --    22 C    0.996    55 H    0.985    57 H    0.983
                            56 H    0.982
    25   8 O    2.229 --    17 B    1.125    22 C    0.954
    26   6 C    3.988 --    16 C    1.796    27 C    1.084    58 H    0.965
    27   6 C    3.959 --    26 C    1.084    28 H    0.970    29 C    0.916
                            10 C    0.858
    28   1 H    0.998 --    27 C    0.970
    29   6 C    3.944 --    30 C    1.091    59 H    0.973    27 C    0.916
                            10 C    0.812
    30   6 C    3.990 --    31 C    1.856    29 C    1.091    60 H    0.965
    31   6 C    3.987 --    30 C    1.856    14 C    0.986    32 H    0.970
    32   1 H    0.999 --    31 C    0.970
    33   1 H    0.997 --     1 C    0.982
    34   1 H    0.998 --     1 C    0.984
    35   1 H    0.997 --     1 C    0.982
    36   1 H    0.997 --     4 C    0.983
    37   1 H    0.998 --     4 C    0.984
    38   1 H    0.998 --     4 C    0.984
    39   1 H    0.998 --     6 C    0.984
    40   1 H    0.997 --     6 C    0.982
    41   1 H    0.997 --     6 C    0.982
    42   1 H    0.998 --     7 C    0.984
    43   1 H    0.997 --     7 C    0.983
    44   1 H    0.998 --     7 C    0.984
    45   1 H    0.999 --    11 C    0.963
    46   1 H    0.997 --    20 C    0.983
    47   1 H    0.998 --    20 C    0.985
    48   1 H    0.997 --    20 C    0.982
    49   1 H    0.997 --    21 C    0.983
    50   1 H    0.998 --    21 C    0.984
    51   1 H    0.998 --    21 C    0.985
    52   1 H    0.998 --    23 C    0.984
    53   1 H    0.997 --    23 C    0.983
    54   1 H    0.998 --    23 C    0.984
    55   1 H    0.998 --    24 C    0.985
    56   1 H    0.997 --    24 C    0.982
    57   1 H    0.997 --    24 C    0.983
    58   1 H    0.999 --    26 C    0.965
    59   1 H    0.998 --    29 C    0.973
    60   1 H    0.999 --    30 C    0.965
 ---------------------------------------------------------------------------

Topologies differ in total number of bonds
Writing topology from bond orders to xtbtopo.mol

molecular dipole:
                 x           y           z       tot (Debye)
 q only:       -0.252      -0.472      -0.174
   full:       -0.327      -0.568      -0.211       1.750
molecular quadrupole (traceless):
                xx          xy          yy          xz          yz          zz
 q only:      -38.001      17.632      65.372     -30.256      -1.008     -27.371
  q+dip:      -46.168      24.612      78.644     -35.007      -1.159     -32.476
   full:      -45.917      24.144      79.803     -36.339      -2.475     -33.886

           -------------------------------------------------
          |                Geometry Summary                 |
           -------------------------------------------------

      molecular mass/u    :      382.1099696
   center of mass at/Å    :        2.9511811     -35.9520280      21.8321259
  moments of inertia/u·Å² :        0.1123501E+04   0.6965756E+04   0.7181417E+04
rotational constants/cm⁻¹ :        0.1500456E-01   0.2420072E-02   0.2347396E-02

 * 58 selected distances

     #   Z          #   Z                                           value/Å
     1   6 C        2   6 C                                       1.5268466
     2   6 C        3   8 O                                       1.4287790
     2   6 C        4   6 C                                       1.5337891
     5   6 C        6   6 C                                       1.5265950
     5   6 C        7   6 C                                       1.5337533
     5   6 C        8   8 O                                       1.4289631
     3   8 O        9   5 B                                       1.3688595
     8   8 O        9   5 B                                       1.3649389
     9   5 B       10   6 C                                       1.5635149 (max)
    10   6 C       11   6 C                                       1.4663210
    11   6 C       12   6 C                                       1.3290358
    12   6 C       13   1 H                                       1.0807007
    14   6 C       15   1 H                                       1.0918830
    16   6 C       17   5 B                                       1.5588848
    17   5 B       18   8 O                                       1.3682456
    18   8 O       19   6 C                                       1.4266259
    19   6 C       20   6 C                                       1.5270475
    19   6 C       21   6 C                                       1.5341980
    22   6 C       23   6 C                                       1.5342359
    22   6 C       24   6 C                                       1.5270989
    17   5 B       25   8 O                                       1.3686752
    22   6 C       25   8 O                                       1.4269499
    16   6 C       26   6 C                                       1.3408276
    10   6 C       27   6 C                                       1.5373566
    26   6 C       27   6 C                                       1.4618918
    27   6 C       28   1 H                                       1.0842878
    27   6 C       29   6 C                                       1.5072312
    29   6 C       30   6 C                                       1.4572680
    30   6 C       31   6 C                                       1.3298047
    31   6 C       32   1 H                                       1.0806575 (min)
     1   6 C       33   1 H                                       1.0872600
     1   6 C       34   1 H                                       1.0865498
     1   6 C       35   1 H                                       1.0851750
     4   6 C       36   1 H                                       1.0876545
     4   6 C       37   1 H                                       1.0871453
     4   6 C       38   1 H                                       1.0858886
     6   6 C       39   1 H                                       1.0866951
     6   6 C       40   1 H                                       1.0851191
     6   6 C       41   1 H                                       1.0871425
     7   6 C       42   1 H                                       1.0857986
     7   6 C       43   1 H                                       1.0874953
     7   6 C       44   1 H                                       1.0872113
    11   6 C       45   1 H                                       1.0829755
    20   6 C       46   1 H                                       1.0872158
    20   6 C       47   1 H                                       1.0867771
    20   6 C       48   1 H                                       1.0851486
    21   6 C       49   1 H                                       1.0876150
    21   6 C       50   1 H                                       1.0871462
    21   6 C       51   1 H                                       1.0859272
    23   6 C       52   1 H                                       1.0859294
    23   6 C       53   1 H                                       1.0875890
    23   6 C       54   1 H                                       1.0870376
    24   6 C       55   1 H                                       1.0867321
    24   6 C       56   1 H                                       1.0850222
    24   6 C       57   1 H                                       1.0871316
    26   6 C       58   1 H                                       1.0829087
    29   6 C       59   1 H                                       1.0814720
    30   6 C       60   1 H                                       1.0839857

 * 5 distinct bonds (by element types)

   Z      Z             #   av. dist./Å        max./Å        min./Å
   1 H    6 C          32     1.0858524     1.0918830     1.0806575
   5 B    6 C           2     1.5611999     1.5635149     1.5588848
   6 C    6 C          16     1.4795813     1.5373566     1.3290358
   5 B    8 O           4     1.3676798     1.3688595     1.3649389
   6 C    8 O           4     1.4278295     1.4289631     1.4266259


optimized geometry written to: xtbopt.xyz


           -------------------------------------------------
          | TOTAL ENERGY              -82.320745138474 Eh   |
          | GRADIENT NORM               0.000855241313 Eh/α |
          | HOMO-LUMO GAP               3.337806223783 eV   |
           -------------------------------------------------

------------------------------------------------------------------------
 * finished run on 2022/07/09 at 18:33:45.992     
------------------------------------------------------------------------
 total:
 * wall-time:     0 d,  0 h,  0 min,  1.293 sec
 *  cpu-time:     0 d,  0 h,  0 min,  1.677 sec
 * ratio c/w:     1.297 speedup
 SCF:
 * wall-time:     0 d,  0 h,  0 min,  0.091 sec
 *  cpu-time:     0 d,  0 h,  0 min,  0.112 sec
 * ratio c/w:     1.226 speedup
 ANC optimizer:
 * wall-time:     0 d,  0 h,  0 min,  1.192 sec
 *  cpu-time:     0 d,  0 h,  0 min,  1.552 sec
 * ratio c/w:     1.303 speedup

