      -----------------------------------------------------------      
     |                   =====================                   |     
     |                           x T B                           |     
     |                   =====================                   |     
     |                         S. Grimme                         |     
     |          Mulliken Center for Theoretical Chemistry        |     
     |                    University of Bonn                     |     
      -----------------------------------------------------------      

   * xtb version 6.5.0 (homebrew) compiled by 'nhattrup@GPGGRP-SHANNON.CHEME.CMU.EDU' on 

   xtb is free software: you can redistribute it and/or modify it under
   the terms of the GNU Lesser General Public License as published by
   the Free Software Foundation, either version 3 of the License, or
   (at your option) any later version.
   
   xtb is distributed in the hope that it will be useful,
   but WITHOUT ANY WARRANTY; without even the implied warranty of
   MERCHANTABILITY or FITNESS FOR A PARTICULAR PURPOSE.  See the
   GNU Lesser General Public License for more details.
   
   Cite this work as:
   * C. Bannwarth, E. Caldeweyher, S. Ehlert, A. Hansen, P. Pracht,
     J. Seibert, S. Spicher, S. Grimme, WIREs Comput. Mol. Sci., 2020, 11,
     e01493. DOI: 10.1002/wcms.1493
   
   for GFN2-xTB:
   * C. Bannwarth, S. Ehlert and S. Grimme., J. Chem. Theory Comput., 2019,
     15, 1652-1671. DOI: 10.1021/acs.jctc.8b01176
   for GFN1-xTB:
   * S. Grimme, C. Bannwarth, P. Shushkov, J. Chem. Theory Comput., 2017,
     13, 1989-2009. DOI: 10.1021/acs.jctc.7b00118
   for GFN0-xTB:
   * P. Pracht, E. Caldeweyher, S. Ehlert, S. Grimme, ChemRxiv, 2019, preprint.
     DOI: 10.26434/chemrxiv.8326202.v1
   for GFN-FF:
   * S. Spicher and S. Grimme, Angew. Chem. Int. Ed., 2020, 59, 15665-15673.
     DOI: 10.1002/anie.202004239
   
   for ALPB and GBSA implicit solvation:
   * S. Ehlert, M. Stahn, S. Spicher, S. Grimme, J. Chem. Theory Comput.,
     2021, 17, 4250-4261. DOI: 10.1021/acs.jctc.1c00471
   
   for DFT-D4:
   * E. Caldeweyher, C. Bannwarth and S. Grimme, J. Chem. Phys., 2017,
     147, 034112. DOI: 10.1063/1.4993215
   * E. Caldeweyher, S. Ehlert, A. Hansen, H. Neugebauer, S. Spicher,
     C. Bannwarth and S. Grimme, J. Chem. Phys., 2019, 150, 154122.
     DOI: 10.1063/1.5090222
   * E. Caldeweyher, J.-M. Mewes, S. Ehlert and S. Grimme, Phys. Chem. Chem. Phys.
     2020, 22, 8499-8512. DOI: 10.1039/D0CP00502A
   
   for sTDA-xTB:
   * S. Grimme and C. Bannwarth, J. Chem. Phys., 2016, 145, 054103.
     DOI: 10.1063/1.4959605
   
   in the mass-spec context:
   * V. Asgeirsson, C. Bauer and S. Grimme, Chem. Sci., 2017, 8, 4879.
     DOI: 10.1039/c7sc00601b
   * J. Koopman and S. Grimme, ACS Omega 2019, 4, 12, 15120-15133.
     DOI: 10.1021/acsomega.9b02011
   
   for metadynamics refer to:
   * S. Grimme, J. Chem. Theory Comput., 2019, 155, 2847-2862
     DOI: 10.1021/acs.jctc.9b00143
   
   for SPH calculations refer to:
   * S. Spicher and S. Grimme, J. Chem. Theory Comput., 2021, 17, 1701-1714
     DOI: 10.1021/acs.jctc.0c01306
   
   with help from (in alphabetical order)
   P. Atkinson, C. Bannwarth, F. Bohle, G. Brandenburg, E. Caldeweyher
   M. Checinski, S. Dohm, S. Ehlert, S. Ehrlich, I. Gerasimov, C. Hölzer
   A. Katbashev, J. Koopman, C. Lavigne, S. Lehtola, F. März, M. Müller,
   F. Musil, H. Neugebauer, J. Pisarek, C. Plett, P. Pracht, F. Pultar,
   J. Seibert, P. Shushkov, S. Spicher, M. Stahn, M. Steiner, T. Strunk,
   J. Stückrath, T. Rose, and J. Unsleber
   
 * started run on 2022/07/09 at 18:33:24.344     

           -------------------------------------------------
          |                Calculation Setup                |
           -------------------------------------------------

          program call               : /opt/homebrew/bin/xtb bvl_bpin2_scan_8-2_xtb.xyz --chrg 0 --uhf 0 --opt --input xcontrol_bvl_bpin2_scan_8-2_xtb
          coordinate file            : bvl_bpin2_scan_8-2_xtb.xyz
          omp threads                :                     1

   ID    Z sym.   atoms
    1    6 C      1, 2, 4-7, 10-12, 14, 16, 19-24, 26, 27, 29-31
    2    8 O      3, 8, 18, 25
    3    5 B      9, 17
    4    1 H      13, 15, 28, 32-60
constraining bond 12 31 to    2.3889000 Å, actual value:    2.2744846 Å
constraining bond 10 29 to    2.2778000 Å, actual value:    2.3856006 Å

           -------------------------------------------------
          |                 G F N 2 - x T B                 |
           -------------------------------------------------

        Reference                      10.1021/acs.jctc.8b01176
      * Hamiltonian:
        H0-scaling (s, p, d)           1.850000    2.230000    2.230000
        zeta-weighting                 0.500000
      * Dispersion:
        s8                             2.700000
        a1                             0.520000
        a2                             5.000000
        s9                             5.000000
      * Repulsion:
        kExp                           1.500000    1.000000
        rExp                           1.000000
      * Coulomb:
        alpha                          2.000000
        third order                    shell-resolved
        anisotropic                    true
        a3                             3.000000
        a5                             4.000000
        cn-shift                       1.200000
        cn-exp                         4.000000
        max-rad                        5.000000


          ...................................................
          :                      SETUP                      :
          :.................................................:
          :  # basis functions                 144          :
          :  # atomic orbitals                 144          :
          :  # shells                           88          :
          :  # electrons                       150          :
          :  max. iterations                   250          :
          :  Hamiltonian                  GFN2-xTB          :
          :  restarted?                      false          :
          :  GBSA solvation                  false          :
          :  PC potential                    false          :
          :  electronic temp.          300.0000000     K    :
          :  accuracy                    1.0000000          :
          :  -> integral cutoff          0.2500000E+02      :
          :  -> integral neglect         0.1000000E-07      :
          :  -> SCF convergence          0.1000000E-05 Eh   :
          :  -> wf. convergence          0.1000000E-03 e    :
          :  Broyden damping             0.4000000          :
          ...................................................

 iter      E             dE          RMSdq      gap      omega  full diag
   1    -82.9123481 -0.829123E+02  0.476E+00    1.35       0.0  T
   2    -83.2444326 -0.332084E+00  0.302E+00    1.35       1.0  T
   3    -83.1242090  0.120224E+00  0.230E+00    2.01       1.0  T
   4    -83.1738945 -0.496855E-01  0.162E+00    1.70       1.0  T
   5    -83.3386636 -0.164769E+00  0.401E-01    1.34       1.0  T
   6    -83.3475666 -0.890304E-02  0.136E-01    1.32       1.0  T
   7    -83.3472364  0.330191E-03  0.967E-02    1.32       1.0  T
   8    -83.3477124 -0.476015E-03  0.298E-02    1.32       1.0  T
   9    -83.3477698 -0.573800E-04  0.963E-03    1.32       1.3  T
  10    -83.3477730 -0.317454E-05  0.467E-03    1.32       2.8  T
  11    -83.3477734 -0.402759E-06  0.197E-03    1.32       6.6  T
  12    -83.3477735 -0.100993E-06  0.582E-04    1.32      22.2  T
  13    -83.3477735 -0.915382E-08  0.340E-04    1.32      38.0  T

   *** convergence criteria satisfied after 13 iterations ***

         #    Occupation            Energy/Eh            Energy/eV
      -------------------------------------------------------------
         1        2.0000           -0.6864388             -18.6790
       ...           ...                  ...                  ...
        69        2.0000           -0.3994339             -10.8691
        70        2.0000           -0.3985122             -10.8441
        71        2.0000           -0.3961362             -10.7794
        72        2.0000           -0.3951302             -10.7520
        73        2.0000           -0.3910271             -10.6404
        74        2.0000           -0.3650694              -9.9340
        75        2.0000           -0.3270667              -8.8999 (HOMO)
        76                         -0.2786185              -7.5816 (LUMO)
        77                         -0.2178549              -5.9281
        78                         -0.1855029              -5.0478
        79                         -0.1478849              -4.0242
        80                         -0.0953740              -2.5953
       ...                                ...                  ...
       144                          0.6783111              18.4578
      -------------------------------------------------------------
                  HL-Gap            0.0484482 Eh            1.3183 eV
             Fermi-level           -0.3028426 Eh           -8.2408 eV

 SCC (total)                   0 d,  0 h,  0 min,  0.072 sec
 SCC setup                      ...        0 min,  0.000 sec (  0.352%)
 Dispersion                     ...        0 min,  0.000 sec (  0.613%)
 classical contributions        ...        0 min,  0.000 sec (  0.248%)
 integral evaluation            ...        0 min,  0.007 sec (  9.097%)
 iterations                     ...        0 min,  0.036 sec ( 50.675%)
 molecular gradient             ...        0 min,  0.028 sec ( 38.507%)
 printout                       ...        0 min,  0.000 sec (  0.499%)

         :::::::::::::::::::::::::::::::::::::::::::::::::::::
         ::                     SUMMARY                     ::
         :::::::::::::::::::::::::::::::::::::::::::::::::::::
         :: total energy             -82.099621750029 Eh    ::
         :: gradient norm              1.680009854205 Eh/a0 ::
         :: HOMO-LUMO gap              1.318341923359 eV    ::
         ::.................................................::
         :: SCC energy               -83.347773498886 Eh    ::
         :: -> isotropic ES            0.147479492887 Eh    ::
         :: -> anisotropic ES          0.012534909584 Eh    ::
         :: -> anisotropic XC          0.027711562289 Eh    ::
         :: -> dispersion             -0.062356881417 Eh    ::
         :: repulsion energy           1.070907013723 Eh    ::
         :: add. restraining           0.176495265710 Eh    ::
         :: total charge              -0.000000000000 e     ::
         :::::::::::::::::::::::::::::::::::::::::::::::::::::

      ----------------------------------------------------------- 
     |                   =====================                   |
     |                        A N C O P T                        |
     |                   =====================                   |
     |               Approximate Normal Coordinate               |
     |                Rational Function Optimizer                |
      ----------------------------------------------------------- 

          ...................................................
          :                      SETUP                      :
          :.................................................:
          :   optimization level            normal          :
          :   max. optcycles                   200          :
          :   ANC micro-cycles                  20          :
          :   degrees of freedom               174          :
          :.................................................:
          :   RF solver                   davidson          :
          :   write xtbopt.log                true          :
          :   linear?                        false          :
          :   energy convergence         0.5000000E-05 Eh   :
          :   grad. convergence          0.1000000E-02 Eh/α :
          :   maximium RF displ.         1.0000000          :
          :   Hlow (freq-cutoff)         0.1000000E-01      :
          :   Hmax (freq-cutoff)         5.0000000          :
          :   S6 in model hess.         20.0000000          :
          ...................................................

generating ANC from model Hessian ...
Using Lindh-Hessian (1995)
 Shifting diagonal of input Hessian by   0.20515425666514761     
 Lowest  eigenvalues of input Hessian
    0.010000    0.146417    0.000000    0.000000    0.000000    0.000000
    0.000000    0.000000    0.205256    0.205291    0.205427    0.206752
    0.207036    0.207918    0.208443    0.208513    0.209751    0.210283
 Highest eigenvalues
    1.916312    2.084955    2.088531    2.177667    8.786224    8.843749


........................................................................
.............................. CYCLE    1 ..............................
........................................................................
   1    -83.3477735 -0.833478E+02  0.170E-04    1.32       0.0  T
   2    -83.3477735  0.521401E-08  0.301E-04    1.32      42.9  T
   3    -83.3477735 -0.617928E-08  0.841E-05    1.32     153.6  T
     SCC iter.                  ...        0 min,  0.009 sec
     gradient                   ...        0 min,  0.027 sec
 * total energy  :   -82.0996218 Eh     change       -0.3454176E-08 Eh
   gradient norm :     1.6800108 Eh/α   predicted     0.0000000E+00 (-100.00%)
   displ. norm   :     0.3116008 α      lambda       -0.5164579E+00
   maximum displ.:     0.2979578 α      in ANC's #174, #173, #127, ...

........................................................................
.............................. CYCLE    2 ..............................
........................................................................
   1    -83.3379441 -0.833379E+02  0.292E-01    1.37       0.0  T
   2    -83.3369260  0.101815E-02  0.306E-01    1.36       1.0  T
   3    -83.3409970 -0.407102E-02  0.147E-01    1.37       1.0  T
   4    -83.3394821  0.151490E-02  0.154E-01    1.38       1.0  T
   5    -83.3409539 -0.147179E-02  0.426E-02    1.37       1.0  T
   6    -83.3410622 -0.108309E-03  0.811E-03    1.37       1.6  T
   7    -83.3410650 -0.275952E-05  0.318E-03    1.37       4.1  T
   8    -83.3410651 -0.126367E-06  0.957E-04    1.37      13.5  T
   9    -83.3410651 -0.142961E-07  0.390E-04    1.37      33.1  T
     SCC iter.                  ...        0 min,  0.025 sec
     gradient                   ...        0 min,  0.029 sec
 * total energy  :   -82.2297927 Eh     change       -0.1301710E+00 Eh
   gradient norm :     0.8446802 Eh/α   predicted    -0.2834748E+00 ( 117.77%)
   displ. norm   :     0.1063961 α      lambda       -0.8594201E-01
   maximum displ.:     0.0991571 α      in ANC's #174, #173, #37, ...

........................................................................
.............................. CYCLE    3 ..............................
........................................................................
   1    -83.3441445 -0.833441E+02  0.106E-01    1.33       0.0  T
   2    -83.3439928  0.151614E-03  0.109E-01    1.33       1.0  T
   3    -83.3445304 -0.537556E-03  0.539E-02    1.33       1.0  T
   4    -83.3441670  0.363373E-03  0.767E-02    1.33       1.0  T
   5    -83.3445472 -0.380120E-03  0.133E-02    1.33       1.0  T
   6    -83.3445570 -0.981757E-05  0.311E-03    1.33       4.1  T
   7    -83.3445574 -0.434496E-06  0.120E-03    1.33      10.8  T
   8    -83.3445574 -0.187910E-07  0.347E-04    1.33      37.2  T
   9    -83.3445574 -0.168095E-08  0.139E-04    1.33      92.7  T
     SCC iter.                  ...        0 min,  0.025 sec
     gradient                   ...        0 min,  0.027 sec
 * total energy  :   -82.2736957 Eh     change       -0.4390294E-01 Eh
   gradient norm :     0.0258264 Eh/α   predicted    -0.4345574E-01 (  -1.02%)
   displ. norm   :     0.0434902 α      lambda       -0.8065526E-03
   maximum displ.:     0.0223367 α      in ANC's #37, #113, #127, ...

........................................................................
.............................. CYCLE    4 ..............................
........................................................................
   1    -83.3445351 -0.833445E+02  0.284E-02    1.34       0.0  T
   2    -83.3445347  0.381178E-06  0.176E-02    1.34       1.0  T
   3    -83.3445065  0.281457E-04  0.205E-02    1.34       1.0  T
   4    -83.3445321 -0.256056E-04  0.895E-03    1.34       1.4  T
   5    -83.3445374 -0.528872E-05  0.157E-03    1.34       8.2  T
   6    -83.3445376 -0.153201E-06  0.459E-04    1.34      28.1  T
   7    -83.3445376 -0.391680E-08  0.267E-04    1.34      48.4  T
     SCC iter.                  ...        0 min,  0.019 sec
     gradient                   ...        0 min,  0.028 sec
 * total energy  :   -82.2743654 Eh     change       -0.6697539E-03 Eh
   gradient norm :     0.0145636 Eh/α   predicted    -0.4048754E-03 ( -39.55%)
   displ. norm   :     0.1279553 α      lambda       -0.1428530E-02
   maximum displ.:     0.0715377 α      in ANC's #37, #33, #32, ...

........................................................................
.............................. CYCLE    5 ..............................
........................................................................
   1    -83.3443420 -0.833443E+02  0.792E-02    1.34       0.0  T
   2    -83.3443212  0.208568E-04  0.502E-02    1.34       1.0  T
   3    -83.3438855  0.435685E-03  0.835E-02    1.34       1.0  T
   4    -83.3443421 -0.456568E-03  0.123E-02    1.34       1.1  T
   5    -83.3443531 -0.110955E-04  0.309E-03    1.34       4.2  T
   6    -83.3443537 -0.588562E-06  0.117E-03    1.34      11.0  T
   7    -83.3443538 -0.352723E-07  0.572E-04    1.34      22.6  T
   8    -83.3443538 -0.110066E-07  0.141E-04    1.34      91.4  T
     SCC iter.                  ...        0 min,  0.022 sec
     gradient                   ...        0 min,  0.028 sec
 * total energy  :   -82.2751651 Eh     change       -0.7996346E-03 Eh
   gradient norm :     0.0147299 Eh/α   predicted    -0.7288130E-03 (  -8.86%)
   displ. norm   :     0.2884316 α      lambda       -0.1200387E-02
   maximum displ.:     0.2563588 α      in ANC's #1, #37, #33, ...

........................................................................
.............................. CYCLE    6 ..............................
........................................................................
   1    -83.3404945 -0.833405E+02  0.171E-01    1.32       0.0  T
   2    -83.3403633  0.131180E-03  0.112E-01    1.32       1.0  T
   3    -83.3378357  0.252760E-02  0.200E-01    1.32       1.0  T
   4    -83.3405262 -0.269056E-02  0.867E-03    1.32       1.5  T
   5    -83.3405316 -0.531419E-05  0.346E-03    1.32       3.7  T
   6    -83.3405316 -0.538680E-07  0.236E-03    1.32       5.5  T
   7    -83.3405319 -0.260335E-06  0.692E-04    1.32      18.6  T
   8    -83.3405319 -0.248361E-07  0.295E-04    1.32      43.8  T
     SCC iter.                  ...        0 min,  0.022 sec
     gradient                   ...        0 min,  0.027 sec
 * total energy  :   -82.2730140 Eh     change        0.2151105E-02 Eh
   gradient norm :     0.0560767 Eh/α   predicted    -0.6529541E-03 (-130.35%)
   displ. norm   :     0.1867436 α      lambda       -0.8327094E-02
   maximum displ.:     0.1838864 α      in ANC's #1, #37, #113, ...

........................................................................
.............................. CYCLE    7 ..............................
........................................................................
   1    -83.3453216 -0.833453E+02  0.118E-01    1.34       0.0  T
   2    -83.3452087  0.112985E-03  0.814E-02    1.34       1.0  T
   3    -83.3442338  0.974857E-03  0.133E-01    1.35       1.0  T
   4    -83.3453458 -0.111204E-02  0.814E-03    1.34       1.6  T
   5    -83.3453509 -0.507493E-05  0.244E-03    1.34       5.3  T
   6    -83.3453509 -0.326288E-07  0.170E-03    1.34       7.6  T
   7    -83.3453511 -0.118588E-06  0.540E-04    1.34      23.9  T
   8    -83.3453511 -0.174167E-07  0.216E-04    1.34      59.8  T
     SCC iter.                  ...        0 min,  0.022 sec
     gradient                   ...        0 min,  0.027 sec
 * total energy  :   -82.2755446 Eh     change       -0.2530657E-02 Eh
   gradient norm :     0.0275736 Eh/α   predicted    -0.2578998E-02 (   1.91%)
   displ. norm   :     0.0493115 α      lambda       -0.1188950E-02
   maximum displ.:     0.0416011 α      in ANC's #1, #37, #33, ...

........................................................................
.............................. CYCLE    8 ..............................
........................................................................
   1    -83.3460577 -0.833461E+02  0.309E-02    1.33       0.0  T
   2    -83.3460556  0.203517E-05  0.193E-02    1.33       1.0  T
   3    -83.3459950  0.606344E-04  0.316E-02    1.33       1.0  T
   4    -83.3460576 -0.625835E-04  0.462E-03    1.33       2.8  T
   5    -83.3460592 -0.163204E-05  0.139E-03    1.33       9.3  T
   6    -83.3460594 -0.141888E-06  0.458E-04    1.33      28.2  T
   7    -83.3460594 -0.433488E-08  0.236E-04    1.33      54.7  T
     SCC iter.                  ...        0 min,  0.019 sec
     gradient                   ...        0 min,  0.028 sec
 * total energy  :   -82.2757938 Eh     change       -0.2491864E-03 Eh
   gradient norm :     0.0200768 Eh/α   predicted    -0.2310063E-03 (  -7.30%)
   displ. norm   :     0.0609341 α      lambda       -0.9957080E-03
   maximum displ.:     0.0380162 α      in ANC's #37, #33, #32, ...

........................................................................
.............................. CYCLE    9 ..............................
........................................................................
   1    -83.3468065 -0.833468E+02  0.311E-02    1.33       0.0  T
   2    -83.3468064  0.107190E-06  0.184E-02    1.33       1.0  T
   3    -83.3467863  0.200935E-04  0.176E-02    1.33       1.0  T
   4    -83.3468068 -0.204359E-04  0.163E-03    1.33       7.9  T
   5    -83.3468069 -0.151814E-06  0.730E-04    1.33      17.7  T
   6    -83.3468069 -0.289021E-07  0.340E-04    1.33      38.0  T
     SCC iter.                  ...        0 min,  0.016 sec
     gradient                   ...        0 min,  0.027 sec
 * total energy  :   -82.2760167 Eh     change       -0.2229187E-03 Eh
   gradient norm :     0.0068878 Eh/α   predicted    -0.1406297E-03 ( -36.91%)
   displ. norm   :     0.1259241 α      lambda       -0.1737006E-02
   maximum displ.:     0.0781489 α      in ANC's #37, #33, #32, ...

........................................................................
.............................. CYCLE   10 ..............................
........................................................................
   1    -83.3478218 -0.833478E+02  0.623E-02    1.33       0.0  T
   2    -83.3478224 -0.603999E-06  0.368E-02    1.33       1.0  T
   3    -83.3478171  0.524615E-05  0.928E-03    1.33       1.4  T
   4    -83.3478211 -0.393520E-05  0.486E-03    1.33       2.7  T
   5    -83.3478226 -0.158136E-05  0.127E-03    1.33      10.2  T
   6    -83.3478227 -0.563165E-07  0.547E-04    1.33      23.6  T
   7    -83.3478227 -0.792782E-08  0.296E-04    1.33      43.6  T
     SCC iter.                  ...        0 min,  0.019 sec
     gradient                   ...        0 min,  0.027 sec
 * total energy  :   -82.2762437 Eh     change       -0.2269582E-03 Eh
   gradient norm :     0.0136219 Eh/α   predicted    -0.1968673E-03 ( -13.26%)
   displ. norm   :     0.0456301 α      lambda       -0.4110179E-03
   maximum displ.:     0.0253572 α      in ANC's #37, #33, #32, ...

........................................................................
.............................. CYCLE   11 ..............................
........................................................................
   1    -83.3482478 -0.833482E+02  0.211E-02    1.32       0.0  T
   2    -83.3482479 -0.430703E-07  0.126E-02    1.32       1.0  T
   3    -83.3482453  0.254611E-05  0.614E-03    1.32       2.1  T
   4    -83.3482478 -0.247776E-05  0.154E-03    1.32       8.4  T
   5    -83.3482479 -0.137114E-06  0.382E-04    1.32      33.8  T
   6    -83.3482479 -0.519366E-08  0.173E-04    1.32      74.5  T
     SCC iter.                  ...        0 min,  0.016 sec
     gradient                   ...        0 min,  0.028 sec
 * total energy  :   -82.2763021 Eh     change       -0.5842603E-04 Eh
   gradient norm :     0.0064617 Eh/α   predicted    -0.3869179E-04 ( -33.78%)
   displ. norm   :     0.0445541 α      lambda       -0.4768910E-03
   maximum displ.:     0.0175357 α      in ANC's #37, #33, #32, ...

........................................................................
.............................. CYCLE   12 ..............................
........................................................................
   1    -83.3488629 -0.833489E+02  0.190E-02    1.32       0.0  T
   2    -83.3488628  0.212009E-07  0.115E-02    1.32       1.1  T
   3    -83.3488550  0.783359E-05  0.108E-02    1.32       1.2  T
   4    -83.3488628 -0.782229E-05  0.192E-03    1.32       6.7  T
   5    -83.3488630 -0.211326E-06  0.431E-04    1.32      30.0  T
   6    -83.3488630 -0.726851E-08  0.174E-04    1.32      74.1  T
     SCC iter.                  ...        0 min,  0.016 sec
     gradient                   ...        0 min,  0.027 sec
 * total energy  :   -82.2763528 Eh     change       -0.5064795E-04 Eh
   gradient norm :     0.0048261 Eh/α   predicted    -0.3783395E-04 ( -25.30%)
   displ. norm   :     0.0304271 α      lambda       -0.2970900E-03
   maximum displ.:     0.0093445 α      in ANC's #29, #17, #8, ...

........................................................................
.............................. CYCLE   13 ..............................
........................................................................
   1    -83.3492652 -0.833493E+02  0.110E-02    1.31       0.0  T
   2    -83.3492653 -0.434005E-07  0.661E-03    1.31       2.0  T
   3    -83.3492648  0.488562E-06  0.292E-03    1.31       4.4  T
   4    -83.3492652 -0.426668E-06  0.118E-03    1.31      10.9  T
   5    -83.3492653 -0.687863E-07  0.650E-04    1.31      19.9  T
   6    -83.3492653 -0.255325E-07  0.135E-04    1.31      95.6  T
     SCC iter.                  ...        0 min,  0.017 sec
     gradient                   ...        0 min,  0.028 sec
 * total energy  :   -82.2763843 Eh     change       -0.3150128E-04 Eh
   gradient norm :     0.0066527 Eh/α   predicted    -0.2037638E-04 ( -35.32%)
   displ. norm   :     0.0455480 α      lambda       -0.4764090E-03
   maximum displ.:     0.0148618 α      in ANC's #29, #17, #8, ...

........................................................................
.............................. CYCLE   14 ..............................
........................................................................
   1    -83.3496440 -0.833496E+02  0.149E-02    1.31       0.0  T
   2    -83.3496440  0.148909E-07  0.896E-03    1.31       1.4  T
   3    -83.3496384  0.554543E-05  0.897E-03    1.31       1.4  T
   4    -83.3496438 -0.540817E-05  0.235E-03    1.31       5.5  T
   5    -83.3496441 -0.314911E-06  0.531E-04    1.31      24.3  T
   6    -83.3496442 -0.148004E-07  0.238E-04    1.31      54.2  T
     SCC iter.                  ...        0 min,  0.016 sec
     gradient                   ...        0 min,  0.028 sec
 * total energy  :   -82.2764240 Eh     change       -0.3969823E-04 Eh
   gradient norm :     0.0051559 Eh/α   predicted    -0.2884228E-04 ( -27.35%)
   displ. norm   :     0.0480836 α      lambda       -0.3095584E-03
   maximum displ.:     0.0166256 α      in ANC's #29, #8, #17, ...

........................................................................
.............................. CYCLE   15 ..............................
........................................................................
   1    -83.3497040 -0.833497E+02  0.157E-02    1.31       0.0  T
   2    -83.3497035  0.441172E-06  0.961E-03    1.31       1.3  T
   3    -83.3496871  0.164038E-04  0.160E-02    1.31       1.0  T
   4    -83.3497041 -0.169549E-04  0.150E-03    1.31       8.6  T
   5    -83.3497042 -0.123172E-06  0.508E-04    1.31      25.4  T
   6    -83.3497042 -0.135037E-07  0.261E-04    1.31      49.5  T
     SCC iter.                  ...        0 min,  0.016 sec
     gradient                   ...        0 min,  0.028 sec
 * total energy  :   -82.2764498 Eh     change       -0.2580903E-04 Eh
   gradient norm :     0.0028676 Eh/α   predicted    -0.1673784E-04 ( -35.15%)
   displ. norm   :     0.0212737 α      lambda       -0.2373897E-03
   maximum displ.:     0.0088838 α      in ANC's #37, #8, #29, ...

........................................................................
.............................. CYCLE   16 ..............................
........................................................................
   1    -83.3494624 -0.833495E+02  0.888E-03    1.31       0.0  T
   2    -83.3494621  0.295666E-06  0.577E-03    1.31       2.2  T
   3    -83.3494560  0.607553E-05  0.995E-03    1.31       1.3  T
   4    -83.3494624 -0.642243E-05  0.898E-04    1.31      14.4  T
   5    -83.3494625 -0.457658E-07  0.196E-04    1.31      66.0  T
   6    -83.3494625 -0.592365E-09  0.118E-04    1.31     109.6  T
     SCC iter.                  ...        0 min,  0.016 sec
     gradient                   ...        0 min,  0.028 sec
 * total energy  :   -82.2764688 Eh     change       -0.1902272E-04 Eh
   gradient norm :     0.0025573 Eh/α   predicted    -0.1169160E-04 ( -38.54%)
   displ. norm   :     0.0374988 α      lambda       -0.4701434E-03
   maximum displ.:     0.0164473 α      in ANC's #37, #8, #29, ...

........................................................................
.............................. CYCLE   17 ..............................
........................................................................
   1    -83.3488301 -0.833488E+02  0.176E-02    1.31       0.0  T
   2    -83.3488294  0.764470E-06  0.113E-02    1.31       1.1  T
   3    -83.3488075  0.218986E-04  0.186E-02    1.31       1.0  T
   4    -83.3488302 -0.227030E-04  0.186E-03    1.31       6.9  T
   5    -83.3488304 -0.215507E-06  0.375E-04    1.31      34.4  T
   6    -83.3488304 -0.282338E-08  0.220E-04    1.31      58.6  T
     SCC iter.                  ...        0 min,  0.016 sec
     gradient                   ...        0 min,  0.028 sec
 * total energy  :   -82.2764959 Eh     change       -0.2714303E-04 Eh
   gradient norm :     0.0033318 Eh/α   predicted    -0.2115630E-04 ( -22.06%)
   displ. norm   :     0.0270032 α      lambda       -0.2201430E-03
   maximum displ.:     0.0101644 α      in ANC's #29, #8, #28, ...

........................................................................
.............................. CYCLE   18 ..............................
........................................................................
   1    -83.3485195 -0.833485E+02  0.118E-02    1.31       0.0  T
   2    -83.3485195  0.528691E-07  0.717E-03    1.31       1.8  T
   3    -83.3485159  0.356296E-05  0.741E-03    1.32       1.7  T
   4    -83.3485195 -0.358751E-05  0.960E-04    1.31      13.4  T
   5    -83.3485196 -0.629720E-07  0.211E-04    1.31      61.2  T
   6    -83.3485196 -0.766349E-09  0.110E-04    1.31     117.6  T
     SCC iter.                  ...        0 min,  0.020 sec
     gradient                   ...        0 min,  0.030 sec
 * total energy  :   -82.2765102 Eh     change       -0.1427727E-04 Eh
   gradient norm :     0.0031531 Eh/α   predicted    -0.9115682E-05 ( -36.15%)
   displ. norm   :     0.0447536 α      lambda       -0.3586938E-03
   maximum displ.:     0.0173278 α      in ANC's #29, #28, #8, ...

........................................................................
.............................. CYCLE   19 ..............................
........................................................................
   1    -83.3482787 -0.833483E+02  0.183E-02    1.32       0.0  T
   2    -83.3482787  0.744092E-08  0.111E-02    1.32       1.2  T
   3    -83.3482752  0.350210E-05  0.691E-03    1.32       1.9  T
   4    -83.3482786 -0.346609E-05  0.145E-03    1.32       8.9  T
   5    -83.3482787 -0.120501E-06  0.435E-04    1.32      29.7  T
   6    -83.3482787 -0.912732E-08  0.193E-04    1.32      67.0  T
     SCC iter.                  ...        0 min,  0.016 sec
     gradient                   ...        0 min,  0.028 sec
 * total energy  :   -82.2765288 Eh     change       -0.1860914E-04 Eh
   gradient norm :     0.0020183 Eh/α   predicted    -0.1381947E-04 ( -25.74%)
   displ. norm   :     0.0308252 α      lambda       -0.2177555E-03
   maximum displ.:     0.0125203 α      in ANC's #28, #8, #29, ...

........................................................................
.............................. CYCLE   20 ..............................
........................................................................
   1    -83.3483693 -0.833484E+02  0.116E-02    1.32       0.0  T
   2    -83.3483690  0.286551E-06  0.740E-03    1.32       1.7  T
   3    -83.3483591  0.991497E-05  0.123E-02    1.32       1.0  T
   4    -83.3483694 -0.102753E-04  0.898E-04    1.32      14.4  T
   5    -83.3483694 -0.459039E-07  0.241E-04    1.32      53.5  T
   6    -83.3483694 -0.245680E-08  0.116E-04    1.32     111.3  T
     SCC iter.                  ...        0 min,  0.017 sec
     gradient                   ...        0 min,  0.027 sec
 * total energy  :   -82.2765392 Eh     change       -0.1040351E-04 Eh
   gradient norm :     0.0016862 Eh/α   predicted    -0.7314884E-05 ( -29.69%)
   displ. norm   :     0.0416747 α      lambda       -0.1628284E-03
   maximum displ.:     0.0173017 α      in ANC's #28, #8, #29, ...
 * RMSD in coord.:     0.0977005 α      energy gain  -0.1769175E+00 Eh

generating ANC from model Hessian ...
Using Lindh-Hessian (1995)
 Shifting diagonal of input Hessian by    1.0136999288246736E-002
 Lowest  eigenvalues of input Hessian
    0.010000    0.000000    0.000000    0.000000    0.000000    0.000000
    0.000000    0.010235    0.010262    0.010276    0.010902    0.011859
    0.012428    0.013208    0.013434    0.013489    0.014813    0.015286
 Highest eigenvalues
    1.720769    1.890455    1.899078    1.914308    8.596132    8.661517


........................................................................
.............................. CYCLE   21 ..............................
........................................................................
   1    -83.3487445 -0.833487E+02  0.144E-02    1.32       0.0  T
   2    -83.3487437  0.805294E-06  0.952E-03    1.32       1.4  T
   3    -83.3487281  0.156539E-04  0.160E-02    1.32       1.0  T
   4    -83.3487447 -0.166571E-04  0.131E-03    1.32       9.8  T
   5    -83.3487448 -0.868158E-07  0.407E-04    1.32      31.7  T
   6    -83.3487448 -0.705768E-08  0.147E-04    1.32      87.5  T
     SCC iter.                  ...        0 min,  0.016 sec
     gradient                   ...        0 min,  0.028 sec
 * total energy  :   -82.2765477 Eh     change       -0.8442551E-05 Eh
   gradient norm :     0.0019091 Eh/α   predicted     0.0000000E+00 (-100.00%)
   displ. norm   :     0.0579214 α      lambda       -0.1349676E-05
   maximum displ.:     0.0273197 α      in ANC's #6, #3, #8, ...

........................................................................
.............................. CYCLE   22 ..............................
........................................................................
   1    -83.3488720 -0.833489E+02  0.180E-02    1.32       0.0  T
   2    -83.3488717  0.261988E-06  0.109E-02    1.32       1.2  T
   3    -83.3488573  0.143888E-04  0.150E-02    1.32       1.0  T
   4    -83.3488720 -0.146514E-04  0.168E-03    1.32       7.7  T
   5    -83.3488722 -0.197537E-06  0.398E-04    1.32      32.4  T
   6    -83.3488722 -0.538347E-08  0.271E-04    1.32      47.6  T
     SCC iter.                  ...        0 min,  0.016 sec
     gradient                   ...        0 min,  0.028 sec
 * total energy  :   -82.2765765 Eh     change       -0.2881463E-04 Eh
   gradient norm :     0.0018118 Eh/α   predicted    -0.1428211E-04 ( -50.43%)
   displ. norm   :     0.0918157 α      lambda       -0.2283853E-04
   maximum displ.:     0.0504663 α      in ANC's #6, #3, #8, ...

........................................................................
.............................. CYCLE   23 ..............................
........................................................................
   1    -83.3487660 -0.833488E+02  0.216E-02    1.33       0.0  T
   2    -83.3487655  0.573508E-06  0.129E-02    1.33       1.0  T
   3    -83.3487414  0.241247E-04  0.194E-02    1.32       1.0  T
   4    -83.3487661 -0.247667E-04  0.169E-03    1.33       7.6  T
   5    -83.3487663 -0.192078E-06  0.388E-04    1.33      33.3  T
   6    -83.3487663 -0.229130E-08  0.262E-04    1.33      49.3  T
     SCC iter.                  ...        0 min,  0.016 sec
     gradient                   ...        0 min,  0.028 sec
 * total energy  :   -82.2765975 Eh     change       -0.2097992E-04 Eh
   gradient norm :     0.0035572 Eh/α   predicted    -0.1148247E-04 ( -45.27%)
   displ. norm   :     0.0552855 α      lambda       -0.1386311E-04
   maximum displ.:     0.0304438 α      in ANC's #6, #3, #8, ...

........................................................................
.............................. CYCLE   24 ..............................
........................................................................
   1    -83.3487021 -0.833487E+02  0.104E-02    1.33       0.0  T
   2    -83.3487020  0.351451E-07  0.615E-03    1.33       2.1  T
   3    -83.3486994  0.265193E-05  0.645E-03    1.33       2.0  T
   4    -83.3487021 -0.268384E-05  0.784E-04    1.33      16.5  T
   5    -83.3487021 -0.392300E-07  0.188E-04    1.33      68.7  T
   6    -83.3487021 -0.286946E-09  0.126E-04    1.33     102.5  T
     SCC iter.                  ...        0 min,  0.016 sec
     gradient                   ...        0 min,  0.028 sec
 * total energy  :   -82.2766077 Eh     change       -0.1024689E-04 Eh
   gradient norm :     0.0016203 Eh/α   predicted    -0.6963645E-05 ( -32.04%)
   displ. norm   :     0.1082005 α      lambda       -0.1344088E-04
   maximum displ.:     0.0613544 α      in ANC's #3, #6, #5, ...

........................................................................
.............................. CYCLE   25 ..............................
........................................................................
   1    -83.3486070 -0.833486E+02  0.183E-02    1.33       0.0  T
   2    -83.3486070 -0.116662E-07  0.109E-02    1.33       1.2  T
   3    -83.3486048  0.223320E-05  0.580E-03    1.33       2.2  T
   4    -83.3486069 -0.209877E-05  0.181E-03    1.33       7.1  T
   5    -83.3486071 -0.212411E-06  0.379E-04    1.33      34.1  T
   6    -83.3486071 -0.140447E-08  0.230E-04    1.33      56.2  T
     SCC iter.                  ...        0 min,  0.016 sec
     gradient                   ...        0 min,  0.028 sec
 * total energy  :   -82.2766206 Eh     change       -0.1293178E-04 Eh
   gradient norm :     0.0006176 Eh/α   predicted    -0.6756389E-05 ( -47.75%)
   displ. norm   :     0.0668670 α      lambda       -0.7177271E-05
   maximum displ.:     0.0426743 α      in ANC's #3, #6, #2, ...

........................................................................
.............................. CYCLE   26 ..............................
........................................................................
   1    -83.3486555 -0.833487E+02  0.118E-02    1.33       0.0  T
   2    -83.3486554  0.102836E-06  0.723E-03    1.33       1.8  T
   3    -83.3486494  0.598970E-05  0.955E-03    1.33       1.4  T
   4    -83.3486556 -0.612678E-05  0.620E-04    1.33      20.8  T
   5    -83.3486556 -0.187961E-07  0.240E-04    1.33      53.8  T
   6    -83.3486556 -0.145064E-08  0.108E-04    1.33     119.5  T
     SCC iter.                  ...        0 min,  0.016 sec
     gradient                   ...        0 min,  0.028 sec
 * total energy  :   -82.2766285 Eh     change       -0.7854710E-05 Eh
   gradient norm :     0.0014385 Eh/α   predicted    -0.3604809E-05 ( -54.11%)
   displ. norm   :     0.0650186 α      lambda       -0.6731145E-05
   maximum displ.:     0.0435665 α      in ANC's #3, #2, #6, ...

........................................................................
.............................. CYCLE   27 ..............................
........................................................................
   1    -83.3487902 -0.833488E+02  0.117E-02    1.33       0.0  T
   2    -83.3487896  0.570598E-06  0.745E-03    1.33       1.7  T
   3    -83.3487790  0.106407E-04  0.133E-02    1.33       1.0  T
   4    -83.3487903 -0.113537E-04  0.322E-04    1.33      40.1  T
   5    -83.3487903 -0.895213E-09  0.225E-04    1.33      57.4  T
   6    -83.3487903 -0.178969E-08  0.108E-04    1.33     119.8  T
     SCC iter.                  ...        0 min,  0.017 sec
     gradient                   ...        0 min,  0.028 sec
 * total energy  :   -82.2766363 Eh     change       -0.7793971E-05 Eh
   gradient norm :     0.0007163 Eh/α   predicted    -0.3372739E-05 ( -56.73%)
   displ. norm   :     0.0698131 α      lambda       -0.6162892E-05
   maximum displ.:     0.0472907 α      in ANC's #3, #2, #5, ...

........................................................................
.............................. CYCLE   28 ..............................
........................................................................
   1    -83.3488746 -0.833489E+02  0.110E-02    1.33       0.0  T
   2    -83.3488738  0.817896E-06  0.719E-03    1.33       1.8  T
   3    -83.3488650  0.882795E-05  0.126E-02    1.33       1.0  T
   4    -83.3488748 -0.982192E-05  0.320E-04    1.33      40.3  T
   5    -83.3488748 -0.217855E-08  0.196E-04    1.33      65.9  T
   6    -83.3488748 -0.847422E-09  0.100E-04    1.33     128.5  T
     SCC iter.                  ...        0 min,  0.016 sec
     gradient                   ...        0 min,  0.027 sec
 * total energy  :   -82.2766438 Eh     change       -0.7528356E-05 Eh
   gradient norm :     0.0004275 Eh/α   predicted    -0.3090536E-05 ( -58.95%)
   displ. norm   :     0.0798109 α      lambda       -0.6473400E-05
   maximum displ.:     0.0543621 α      in ANC's #3, #2, #8, ...

........................................................................
.............................. CYCLE   29 ..............................
........................................................................
   1    -83.3489062 -0.833489E+02  0.106E-02    1.33       0.0  T
   2    -83.3489058  0.355497E-06  0.664E-03    1.33       1.9  T
   3    -83.3488970  0.876280E-05  0.119E-02    1.33       1.1  T
   4    -83.3489062 -0.920184E-05  0.407E-04    1.33      31.8  T
   5    -83.3489062 -0.820415E-08  0.194E-04    1.33      66.5  T
   6    -83.3489062 -0.254246E-09  0.127E-04    1.33     101.3  T
     SCC iter.                  ...        0 min,  0.017 sec
     gradient                   ...        0 min,  0.028 sec
 * total energy  :   -82.2766520 Eh     change       -0.8227099E-05 Eh
   gradient norm :     0.0005122 Eh/α   predicted    -0.3246211E-05 ( -60.54%)
   displ. norm   :     0.0967327 α      lambda       -0.7524035E-05
   maximum displ.:     0.0659476 α      in ANC's #3, #2, #8, ...

........................................................................
.............................. CYCLE   30 ..............................
........................................................................
   1    -83.3488813 -0.833489E+02  0.107E-02    1.33       0.0  T
   2    -83.3488810  0.312082E-06  0.678E-03    1.33       1.9  T
   3    -83.3488723  0.866131E-05  0.117E-02    1.33       1.1  T
   4    -83.3488814 -0.905294E-05  0.397E-04    1.33      32.5  T
   5    -83.3488814 -0.508237E-08  0.264E-04    1.33      48.9  T
   6    -83.3488814 -0.314297E-08  0.132E-04    1.33      98.0  T
     SCC iter.                  ...        0 min,  0.016 sec
     gradient                   ...        0 min,  0.028 sec
 * total energy  :   -82.2766617 Eh     change       -0.9640734E-05 Eh
   gradient norm :     0.0007772 Eh/α   predicted    -0.3778974E-05 ( -60.80%)
   displ. norm   :     0.1129819 α      lambda       -0.8063759E-05
   maximum displ.:     0.0780148 α      in ANC's #3, #2, #8, ...

........................................................................
.............................. CYCLE   31 ..............................
........................................................................
   1    -83.3487870 -0.833488E+02  0.116E-02    1.33       0.0  T
   2    -83.3487870  0.648117E-08  0.703E-03    1.33       1.8  T
   3    -83.3487844  0.256330E-05  0.615E-03    1.33       2.1  T
   4    -83.3487870 -0.260148E-05  0.633E-04    1.33      20.4  T
   5    -83.3487871 -0.172780E-07  0.314E-04    1.33      41.2  T
   6    -83.3487871 -0.536612E-08  0.148E-04    1.33      87.3  T
     SCC iter.                  ...        0 min,  0.017 sec
     gradient                   ...        0 min,  0.028 sec
 * total energy  :   -82.2766720 Eh     change       -0.1034230E-04 Eh
   gradient norm :     0.0005552 Eh/α   predicted    -0.4055722E-05 ( -60.79%)
   displ. norm   :     0.1179777 α      lambda       -0.7664607E-05
   maximum displ.:     0.0829412 α      in ANC's #3, #2, #5, ...

........................................................................
.............................. CYCLE   32 ..............................
........................................................................
   1    -83.3487234 -0.833487E+02  0.109E-02    1.33       0.0  T
   2    -83.3487235 -0.964461E-08  0.657E-03    1.33       2.0  T
   3    -83.3487221  0.134473E-05  0.447E-03    1.33       2.9  T
   4    -83.3487234 -0.132198E-05  0.964E-04    1.33      13.4  T
   5    -83.3487235 -0.552134E-07  0.338E-04    1.33      38.2  T
   6    -83.3487235 -0.744571E-08  0.138E-04    1.33      93.3  T
     SCC iter.                  ...        0 min,  0.016 sec
     gradient                   ...        0 min,  0.028 sec
 * total energy  :   -82.2766821 Eh     change       -0.1012453E-04 Eh
   gradient norm :     0.0007395 Eh/α   predicted    -0.3857081E-05 ( -61.90%)
   displ. norm   :     0.1282544 α      lambda       -0.8312062E-05
   maximum displ.:     0.0905566 α      in ANC's #3, #2, #1, ...

........................................................................
.............................. CYCLE   33 ..............................
........................................................................
   1    -83.3486783 -0.833487E+02  0.117E-02    1.33       0.0  T
   2    -83.3486783 -0.199340E-07  0.699E-03    1.33       1.8  T
   3    -83.3486780  0.376333E-06  0.239E-03    1.33       5.4  T
   4    -83.3486783 -0.343503E-06  0.878E-04    1.33      14.7  T
   5    -83.3486783 -0.452162E-07  0.283E-04    1.33      45.6  T
     SCC iter.                  ...        0 min,  0.014 sec
     gradient                   ...        0 min,  0.028 sec
 * total energy  :   -82.2766933 Eh     change       -0.1120092E-04 Eh
   gradient norm :     0.0013389 Eh/α   predicted    -0.4186729E-05 ( -62.62%)
   displ. norm   :     0.1703665 α      lambda       -0.1147318E-04
   maximum displ.:     0.1194759 α      in ANC's #3, #2, #1, ...

........................................................................
.............................. CYCLE   34 ..............................
........................................................................
   1    -83.3486444 -0.833486E+02  0.155E-02    1.33       0.0  T
   2    -83.3486444  0.968114E-09  0.927E-03    1.33       1.4  T
   3    -83.3486424  0.198361E-05  0.520E-03    1.33       2.5  T
   4    -83.3486444 -0.192408E-05  0.139E-03    1.33       9.3  T
   5    -83.3486445 -0.126209E-06  0.352E-04    1.33      36.7  T
   6    -83.3486445 -0.390473E-08  0.190E-04    1.33      68.1  T
     SCC iter.                  ...        0 min,  0.017 sec
     gradient                   ...        0 min,  0.028 sec
 * total energy  :   -82.2767086 Eh     change       -0.1527744E-04 Eh
   gradient norm :     0.0017945 Eh/α   predicted    -0.5813249E-05 ( -61.95%)
   displ. norm   :     0.2547798 α      lambda       -0.1644862E-04
   maximum displ.:     0.1776190 α      in ANC's #3, #2, #1, ...

........................................................................
.............................. CYCLE   35 ..............................
........................................................................
   1    -83.3485142 -0.833485E+02  0.235E-02    1.33       0.0  T
   2    -83.3485142 -0.249587E-07  0.141E-02    1.33       1.0  T
   3    -83.3485126  0.160196E-05  0.482E-03    1.33       2.7  T
   4    -83.3485142 -0.159633E-05  0.108E-03    1.33      11.9  T
   5    -83.3485143 -0.576631E-07  0.442E-04    1.33      29.2  T
   6    -83.3485143 -0.398583E-08  0.215E-04    1.33      60.1  T
     SCC iter.                  ...        0 min,  0.016 sec
     gradient                   ...        0 min,  0.028 sec
 * total energy  :   -82.2767300 Eh     change       -0.2140090E-04 Eh
   gradient norm :     0.0011068 Eh/α   predicted    -0.8462655E-05 ( -60.46%)
   displ. norm   :     0.3491655 α      lambda       -0.1942420E-04
   maximum displ.:     0.2425091 α      in ANC's #3, #2, #1, ...

........................................................................
.............................. CYCLE   36 ..............................
........................................................................
   1    -83.3483570 -0.833484E+02  0.319E-02    1.33       0.0  T
   2    -83.3483570 -0.777369E-07  0.192E-02    1.33       1.0  T
   3    -83.3483563  0.691625E-06  0.307E-03    1.33       4.2  T
   4    -83.3483570 -0.640161E-06  0.146E-03    1.33       8.8  T
   5    -83.3483571 -0.957188E-07  0.802E-04    1.33      16.1  T
   6    -83.3483571 -0.244087E-07  0.335E-04    1.33      38.6  T
     SCC iter.                  ...        0 min,  0.016 sec
     gradient                   ...        0 min,  0.028 sec
 * total energy  :   -82.2767535 Eh     change       -0.2349989E-04 Eh
   gradient norm :     0.0007992 Eh/α   predicted    -0.1023868E-04 ( -56.43%)
   displ. norm   :     0.3838872 α      lambda       -0.1606873E-04
   maximum displ.:     0.2666168 α      in ANC's #3, #2, #1, ...

........................................................................
.............................. CYCLE   37 ..............................
........................................................................
   1    -83.3482925 -0.833483E+02  0.344E-02    1.33       0.0  T
   2    -83.3482925  0.228337E-07  0.208E-02    1.33       1.0  T
   3    -83.3482842  0.829316E-05  0.112E-02    1.34       1.1  T
   4    -83.3482926 -0.838323E-05  0.143E-03    1.33       9.0  T
   5    -83.3482927 -0.106818E-06  0.620E-04    1.33      20.8  T
   6    -83.3482927 -0.706346E-08  0.328E-04    1.33      39.3  T
     SCC iter.                  ...        0 min,  0.016 sec
     gradient                   ...        0 min,  0.028 sec
 * total energy  :   -82.2767713 Eh     change       -0.1781237E-04 Eh
   gradient norm :     0.0009972 Eh/α   predicted    -0.8562008E-05 ( -51.93%)
   displ. norm   :     0.3228741 α      lambda       -0.9298249E-05
   maximum displ.:     0.2246078 α      in ANC's #3, #2, #1, ...

........................................................................
.............................. CYCLE   38 ..............................
........................................................................
   1    -83.3484346 -0.833484E+02  0.291E-02    1.34       0.0  T
   2    -83.3484345  0.117670E-06  0.177E-02    1.34       1.0  T
   3    -83.3484222  0.123512E-04  0.136E-02    1.34       1.0  T
   4    -83.3484347 -0.125556E-04  0.112E-03    1.34      11.5  T
   5    -83.3484348 -0.599118E-07  0.506E-04    1.34      25.5  T
   6    -83.3484348 -0.314385E-08  0.260E-04    1.34      49.6  T
     SCC iter.                  ...        0 min,  0.016 sec
     gradient                   ...        0 min,  0.028 sec
 * total energy  :   -82.2767812 Eh     change       -0.9892089E-05 Eh
   gradient norm :     0.0005041 Eh/α   predicted    -0.4865609E-05 ( -50.81%)
   displ. norm   :     0.2517343 α      lambda       -0.5444530E-05
   maximum displ.:     0.1749678 α      in ANC's #3, #2, #1, ...

........................................................................
.............................. CYCLE   39 ..............................
........................................................................
   1    -83.3486506 -0.833487E+02  0.221E-02    1.34       0.0  T
   2    -83.3486501  0.538529E-06  0.137E-02    1.34       1.0  T
   3    -83.3486236  0.265083E-04  0.200E-02    1.34       1.0  T
   4    -83.3486508 -0.272076E-04  0.767E-04    1.34      16.8  T
   5    -83.3486508 -0.231538E-07  0.384E-04    1.34      33.6  T
   6    -83.3486508 -0.743711E-09  0.196E-04    1.34      65.9  T
     SCC iter.                  ...        0 min,  0.016 sec
     gradient                   ...        0 min,  0.028 sec
 * total energy  :   -82.2767870 Eh     change       -0.5737765E-05 Eh
   gradient norm :     0.0003937 Eh/α   predicted    -0.2799570E-05 ( -51.21%)
   displ. norm   :     0.1910150 α      lambda       -0.3776418E-05
   maximum displ.:     0.1317498 α      in ANC's #3, #2, #1, ...

........................................................................
.............................. CYCLE   40 ..............................
........................................................................
   1    -83.3488586 -0.833489E+02  0.177E-02    1.34       0.0  T
   2    -83.3488582  0.433596E-06  0.111E-02    1.34       1.2  T
   3    -83.3488389  0.192443E-04  0.171E-02    1.34       1.0  T
   4    -83.3488587 -0.198053E-04  0.581E-04    1.34      22.2  T
   5    -83.3488588 -0.114523E-07  0.312E-04    1.34      41.4  T
   6    -83.3488588 -0.744635E-09  0.171E-04    1.34      75.7  T
     SCC iter.                  ...        0 min,  0.017 sec
     gradient                   ...        0 min,  0.028 sec
 * total energy  :   -82.2767908 Eh     change       -0.3815165E-05 Eh
   gradient norm :     0.0003080 Eh/α   predicted    -0.1921530E-05 ( -49.63%)
   displ. norm   :     0.0989210 α      lambda       -0.2042159E-05
   maximum displ.:     0.0659826 α      in ANC's #3, #2, #1, ...

   *** GEOMETRY OPTIMIZATION CONVERGED AFTER 40 ITERATIONS ***

------------------------------------------------------------------------
 total energy gain   :        -0.1771690 Eh     -111.1752 kcal/mol
 total RMSD          :         0.3771095 a0        0.1996 Å
 total power (kW/mol):       -11.6289307 (step) -214.0185 (real)
------------------------------------------------------------------------

 ANCopt (total)                0 d,  0 h,  0 min,  2.173 sec
 optimizer setup                ...        0 min,  0.000 sec (  0.004%)
 model hessian                  ...        0 min,  0.064 sec (  2.962%)
 ANC generation                 ...        0 min,  0.005 sec (  0.252%)
 coordinate transformation      ...        0 min,  0.001 sec (  0.028%)
 single point calculation       ...        0 min,  2.088 sec ( 96.079%)
 optimization log               ...        0 min,  0.008 sec (  0.376%)
 hessian update                 ...        0 min,  0.001 sec (  0.043%)
 rational function              ...        0 min,  0.004 sec (  0.178%)

================
 final structure:
================
60
 xtb: 6.5.0 (homebrew)
C            3.58044719713723      -37.63179197018255       15.88468568706871
C            3.76150246543913      -38.13777969087432       17.31409751683904
O            3.28550956831499      -37.15606257376814       18.23257368541036
C            2.90031420912717      -39.39135460374168       17.51562505770768
C            5.25408074095726      -38.34683298523712       17.75847795583104
C            5.73977084449346      -39.79396195448447       17.72580843022695
C            6.23654015959406      -37.46923482973131       16.97176887933711
O            5.26117723434472      -37.87152316807138       19.10323218121947
B            4.14199773870865      -37.10554007482631       19.30400732884759
C            3.86458088866110      -36.30829593145718       20.59749923010400
C            4.89297565153069      -36.10765710283464       21.52627785268991
C            4.91811907432409      -35.30665120903151       22.62831503110571
H            5.84647205194769      -35.22100860035716       23.17478552184500
C            3.83541305302993      -34.31938307335585       23.03327762739186
H            4.07821061402674      -33.92267017488434       24.02122701472944
C            2.46191863399722      -34.93845862558778       23.11508875581328
B            1.72588706716846      -34.91951562224603       24.49019615067453
O            2.25008178961082      -34.36521759741385       25.62601769788681
C            1.39465551804363      -34.67415470410742       26.72518569996050
C            1.27113369989742      -33.45419579123846       27.63526596684189
C            2.06392971439734      -35.81478559179862       27.50253953572715
C            0.05979723299593      -35.11545577040932       26.02228016485480
C           -0.94762956881033      -33.96714576528392       25.88208153365034
C           -0.63645954969892      -36.31702065985242       26.65714284871400
O            0.48636258710481      -35.45471976473964       24.70325389200154
C            1.90336620999306      -35.51222608940657       22.04974833290956
C            2.50968081562921      -35.59848157130711       20.69121718922918
H            1.81860413595549      -36.10187765005983       20.01360594221556
C            2.94570606412884      -34.29875585056636       20.06042257324962
C            3.62784229783260      -33.27514371916325       20.69795834111715
C            3.97703780900729      -33.20056435562091       22.01855731489691
H            4.57026610526618      -32.35657093232253       22.34051910494135
H            2.51756371961225      -37.54796233844118       15.67187313783562
H            4.02590410090454      -38.32928393880291       15.18060820915986
H            4.02755739900343      -36.65152643106082       15.75547916497581
H            1.85846671432978      -39.12396626161279       17.35373820459366
H            2.99927471982004      -39.75409095309110       18.53572593991753
H            3.17703025698672      -40.17504366946370       16.81682060249408
H            5.65903606875348      -40.19476396542260       16.71900679660218
H            5.17096125200222      -40.41421910862324       18.41068009863314
H            6.78210857846331      -39.82194336269757       18.03352752818384
H            6.32171505264538      -37.80041786177700       15.94119138005959
H            7.21283269869557      -37.53388197860009       17.44677562721076
H            5.91813867601113      -36.43003867137778       17.00036780329304
H            5.79010103947117      -36.68006108613103       21.31544985817019
H            2.24097850041937      -33.24760733307717       28.08111132203740
H            0.55407864639697      -33.64870129402191       28.42829666152742
H            0.96435216376035      -32.57626485919572       27.07611321499283
H            3.05249375276708      -35.48611834375620       27.81519436841494
H            2.18669975568846      -36.68405204900360       26.86135217188500
H            1.48617287454975      -36.08331995076810       28.38184421993855
H           -1.35318420923465      -33.67930122634764       26.84735913011588
H           -1.76053284291606      -34.29874353730221       25.24020267417460
H           -0.47590898529705      -33.10972297232018       25.40869786149276
H           -0.88782040351441      -36.10282270203779       27.69245210562913
H           -0.01046559490845      -37.20214892342875       26.61071059098746
H           -1.55176114931419      -36.52328026892381       26.10798477046433
H            0.92580273727043      -35.96071014326262       22.16499751313322
H            2.85072296716227      -34.26241998448338       18.98593328655398
H            3.90214945631251      -32.43052878101429       20.07361571247116

 Bond Distances (Angstroems)
 ---------------------------
C1-C2=1.5271         C1-H33=1.0872        C1-H34=1.0866        C1-H35=1.0851        C2-C1=1.5271         C2-O3=1.4262         
C2-C4=1.5342         C2-C5=1.5713         O3-C2=1.4262         O3-B9=1.3726         C4-C2=1.5342         C4-H36=1.0877        
C4-H37=1.0872        C4-H38=1.0858        C5-C2=1.5713         C5-C6=1.5268         C5-C7=1.5344         C5-O8=1.4263         
C6-C5=1.5268         C6-H39=1.0867        C6-H40=1.0850        C6-H41=1.0872        C7-C5=1.5344         C7-H42=1.0858        
C7-H43=1.0876        C7-H44=1.0873        O8-C5=1.4263         O8-B9=1.3710         B9-O3=1.3726         B9-O8=1.3710         
B9-C10=1.5446        C10-B9=1.5446        C10-C11=1.4002       C10-C27=1.5324       C11-C10=1.4002       C11-C12=1.3626       
C11-H45=1.0849       C12-C11=1.3626       C12-H13=1.0806       C12-C14=1.5202       H13-C12=1.0806       C14-C12=1.5202       
C14-H15=1.0920       C14-C16=1.5088       C14-C31=1.5171       H15-C14=1.0920       C16-C14=1.5088       C16-B17=1.5598       
C16-C26=1.3327       B17-C16=1.5598       B17-O18=1.3683       B17-O25=1.3668       O18-B17=1.3683       O18-C19=1.4267       
C19-O18=1.4267       C19-C20=1.5270       C19-C21=1.5340       C19-C22=1.5718       C20-C19=1.5270       C20-H46=1.0872       
C20-H47=1.0867       C20-H48=1.0851       C21-C19=1.5340       C21-H49=1.0877       C21-H50=1.0871       C21-H51=1.0859       
C22-C19=1.5718       C22-C23=1.5340       C22-C24=1.5270       C22-O25=1.4272       C23-C22=1.5340       C23-H52=1.0859       
C23-H53=1.0876       C23-H54=1.0871       C24-C22=1.5270       C24-H55=1.0867       C24-H56=1.0851       C24-H57=1.0871       
O25-B17=1.3668       O25-C22=1.4272       C26-C16=1.3327       C26-C27=1.4902       C26-H58=1.0817       C27-C10=1.5324       
C27-C26=1.4902       C27-H28=1.0909       C27-C29=1.5091       H28-C27=1.0909       C29-C27=1.5091       C29-C30=1.3855       
C29-H59=1.0793       C30-C29=1.3855       C30-C31=1.3680       C30-H60=1.0856       C31-C14=1.5171       C31-C30=1.3680       
C31-H32=1.0807       H32-C31=1.0807       H33-C1=1.0872        H34-C1=1.0866        H35-C1=1.0851        H36-C4=1.0877        
H37-C4=1.0872        H38-C4=1.0858        H39-C6=1.0867        H40-C6=1.0850        H41-C6=1.0872        H42-C7=1.0858        
H43-C7=1.0876        H44-C7=1.0873        H45-C11=1.0849       H46-C20=1.0872       H47-C20=1.0867       H48-C20=1.0851       
H49-C21=1.0877       H50-C21=1.0871       H51-C21=1.0859       H52-C23=1.0859       H53-C23=1.0876       H54-C23=1.0871       
H55-C24=1.0867       H56-C24=1.0851       H57-C24=1.0871       H58-C26=1.0817       H59-C29=1.0793       H60-C30=1.0856       
 C  H  Rav=1.0861 sigma=0.0026  Rmin=1.0793  Rmax=1.0920    32
 C  B  Rav=1.5522 sigma=0.0076  Rmin=1.5446  Rmax=1.5598     2
 C  C  Rav=1.4912 sigma=0.0709  Rmin=1.3327  Rmax=1.5718    21
 O  B  Rav=1.3697 sigma=0.0023  Rmin=1.3668  Rmax=1.3726     4
 O  C  Rav=1.4266 sigma=0.0004  Rmin=1.4262  Rmax=1.4272     4

 selected bond angles (degree)
 --------------------
H33-C1-C2=108.95               H34-C1-C2=110.20               H34-C1-H33=108.87              H35-C1-C2=111.22               
H35-C1-H33=108.05              H35-C1-H34=109.50              O3-C2-C1=109.58                C4-C2-C1=109.10                
C4-C2-O3=106.89                C5-C2-C1=114.92                C5-C2-O3=103.09                C5-C2-C4=112.79                
B9-O3-C2=108.65                H36-C4-C2=108.50               H37-C4-C2=110.17               H37-C4-H36=107.99              
H38-C4-C2=111.23               H38-C4-H36=109.01              H38-C4-H37=109.87              C6-C5-C2=114.97                
C7-C5-C2=112.78                C7-C5-C6=109.11                O8-C5-C2=103.12                O8-C5-C6=109.54                
O8-C5-C7=106.84                H39-C6-C5=110.23               H40-C6-C5=111.20               H40-C6-H39=109.57              
H41-C6-C5=108.86               H41-C6-H39=108.90              H41-C6-H40=108.01              H42-C7-C5=111.25               
H43-C7-C5=108.47               H43-C7-H42=109.02              H44-C7-C5=110.22               H44-C7-H42=109.84              
H44-C7-H43=107.95              B9-O8-C5=108.67                O8-B9-O3=111.99                C10-B9-O3=124.10               
C10-B9-O8=123.89               C11-C10-B9=119.84              C27-C10-B9=116.69              C27-C10-C11=122.85             

 selected dihedral angles (degree)
 ---------------------------------
O3-C2-C1-H33=293.98           O3-C2-C1-H34=174.59           O3-C2-C1-H35= 52.97           C4-C2-C1-H33= 50.69           
C4-C2-C1-H34=291.30           C4-C2-C1-H35=169.68           C5-C2-C1-H33=178.48           C5-C2-C1-H34= 59.10           
C5-C2-C1-H35=297.48           B9-O3-C2-C1=219.86            B9-O3-C2-C4=101.77            B9-O3-C2-C5=342.68            
H36-C4-C2-C1=299.27           H36-C4-C2-O3= 57.68           H36-C4-C2-C5=170.28           H37-C4-C2-C1=181.24           
H37-C4-C2-O3=299.65           H37-C4-C2-C5= 52.25           H38-C4-C2-C1= 59.16           H38-C4-C2-O3=177.57           
H38-C4-C2-C5=290.17           C6-C5-C2-C1=259.22            C6-C5-C2-O3=140.04            C6-C5-C2-C4= 25.13            
C7-C5-C2-C1= 25.19            C7-C5-C2-O3=266.01            C7-C5-C2-C4=151.10            O8-C5-C2-C1=140.05            
O8-C5-C2-O3= 20.87            O8-C5-C2-C4=265.96            H39-C6-C5-C2= 59.67           H39-C6-C5-C7=291.83           
H39-C6-C5-O8=175.20           H40-C6-C5-C2=297.94           H40-C6-C5-C7=170.11           H40-C6-C5-O8= 53.48           
H41-C6-C5-C2=179.06           H41-C6-C5-C7= 51.23           H41-C6-C5-O8=294.60           H42-C7-C5-C2=289.98           
H42-C7-C5-C6= 59.04           H42-C7-C5-O8=177.38           H43-C7-C5-C2=170.07           H43-C7-C5-C6=299.13           
H43-C7-C5-O8= 57.47           H44-C7-C5-C2= 52.08           H44-C7-C5-C6=181.14           H44-C7-C5-O8=299.48           
B9-O8-C5-C2=342.74            B9-O8-C5-C6=219.86            B9-O8-C5-C7=101.80            O8-B9-O3-C2=  7.45            
C10-B9-O3-C2=188.82           O3-B9-O8-C5=  7.33            C10-B9-O8-C5=185.96           C11-C10-B9-O3=192.07          
C11-C10-B9-O8= 13.61          C27-C10-B9-O3=  3.26          C27-C10-B9-O8=184.80          
           -------------------------------------------------
          |                Final Singlepoint                |
           -------------------------------------------------

          ...................................................
          :                      SETUP                      :
          :.................................................:
          :  # basis functions                 144          :
          :  # atomic orbitals                 144          :
          :  # shells                           88          :
          :  # electrons                       150          :
          :  max. iterations                   250          :
          :  Hamiltonian                  GFN2-xTB          :
          :  restarted?                      false          :
          :  GBSA solvation                  false          :
          :  PC potential                    false          :
          :  electronic temp.          300.0000000     K    :
          :  accuracy                    1.0000000          :
          :  -> integral cutoff          0.2500000E+02      :
          :  -> integral neglect         0.1000000E-07      :
          :  -> SCF convergence          0.1000000E-05 Eh   :
          :  -> wf. convergence          0.1000000E-03 e    :
          :  Broyden damping             0.4000000          :
          ...................................................

 iter      E             dE          RMSdq      gap      omega  full diag
   1    -83.3488588 -0.833489E+02  0.579E-05    1.34       0.0  T
   2    -83.3488588  0.137618E-09  0.670E-05    1.34     192.8  T
   3    -83.3488588 -0.241329E-09  0.334E-05    1.34     386.9  T

   *** convergence criteria satisfied after 3 iterations ***

         #    Occupation            Energy/Eh            Energy/eV
      -------------------------------------------------------------
         1        2.0000           -0.6869042             -18.6916
       ...           ...                  ...                  ...
        69        2.0000           -0.3997724             -10.8784
        70        2.0000           -0.3984342             -10.8419
        71        2.0000           -0.3961975             -10.7811
        72        2.0000           -0.3959610             -10.7746
        73        2.0000           -0.3907109             -10.6318
        74        2.0000           -0.3654339              -9.9440
        75        2.0000           -0.3270243              -8.8988 (HOMO)
        76                         -0.2779269              -7.5628 (LUMO)
        77                         -0.2182652              -5.9393
        78                         -0.1841018              -5.0097
        79                         -0.1488779              -4.0512
        80                         -0.0947214              -2.5775
       ...                                ...                  ...
       144                          0.6772761              18.4296
      -------------------------------------------------------------
                  HL-Gap            0.0490974 Eh            1.3360 eV
             Fermi-level           -0.3024756 Eh           -8.2308 eV

 SCC (total)                   0 d,  0 h,  0 min,  0.043 sec
 SCC setup                      ...        0 min,  0.000 sec (  0.526%)
 Dispersion                     ...        0 min,  0.000 sec (  0.881%)
 classical contributions        ...        0 min,  0.000 sec (  0.403%)
 integral evaluation            ...        0 min,  0.006 sec ( 13.887%)
 iterations                     ...        0 min,  0.008 sec ( 19.329%)
 molecular gradient             ...        0 min,  0.028 sec ( 64.140%)
 printout                       ...        0 min,  0.000 sec (  0.819%)

         :::::::::::::::::::::::::::::::::::::::::::::::::::::
         ::                     SUMMARY                     ::
         :::::::::::::::::::::::::::::::::::::::::::::::::::::
         :: total energy             -82.276790782006 Eh    ::
         :: gradient norm              0.000307143559 Eh/a0 ::
         :: HOMO-LUMO gap              1.336008312977 eV    ::
         ::.................................................::
         :: SCC energy               -83.348858759645 Eh    ::
         :: -> isotropic ES            0.147644370569 Eh    ::
         :: -> anisotropic ES          0.012332080093 Eh    ::
         :: -> anisotropic XC          0.027738633794 Eh    ::
         :: -> dispersion             -0.062585582409 Eh    ::
         :: repulsion energy           1.071177396555 Eh    ::
         :: add. restraining           0.000163299949 Eh    ::
         :: total charge              -0.000000000000 e     ::
         :::::::::::::::::::::::::::::::::::::::::::::::::::::

           -------------------------------------------------
          |                Property Printout                |
           -------------------------------------------------

    * Orbital Energies and Occupations

         #    Occupation            Energy/Eh            Energy/eV
      -------------------------------------------------------------
         1        2.0000           -0.6869042             -18.6916
       ...           ...                  ...                  ...
        63        2.0000           -0.4353102             -11.8454
        64        2.0000           -0.4313049             -11.7364
        65        2.0000           -0.4221609             -11.4876
        66        2.0000           -0.4198269             -11.4241
        67        2.0000           -0.4170053             -11.3473
        68        2.0000           -0.4148548             -11.2888
        69        2.0000           -0.3997724             -10.8784
        70        2.0000           -0.3984342             -10.8419
        71        2.0000           -0.3961975             -10.7811
        72        2.0000           -0.3959610             -10.7746
        73        2.0000           -0.3907109             -10.6318
        74        2.0000           -0.3654339              -9.9440
        75        2.0000           -0.3270243              -8.8988 (HOMO)
        76                         -0.2779269              -7.5628 (LUMO)
        77                         -0.2182652              -5.9393
        78                         -0.1841018              -5.0097
        79                         -0.1488779              -4.0512
        80                         -0.0947214              -2.5775
        81                         -0.0879994              -2.3946
        82                          0.0104262               0.2837
        83                          0.0130445               0.3550
        84                          0.0294274               0.8008
        85                          0.0301241               0.8197
        86                          0.0576171               1.5678
       ...                                ...                  ...
       144                          0.6772761              18.4296
      -------------------------------------------------------------
                  HL-Gap            0.0490974 Eh            1.3360 eV
             Fermi-level           -0.3024756 Eh           -8.2308 eV

     #   Z          covCN         q      C6AA      α(0)
     1   6 C        3.755    -0.116    22.786     6.806
     2   6 C        3.859     0.130    18.440     6.107
     3   8 O        1.638    -0.378    20.440     6.103
     4   6 C        3.755    -0.116    22.770     6.804
     5   6 C        3.860     0.130    18.440     6.107
     6   6 C        3.755    -0.117    22.798     6.808
     7   6 C        3.755    -0.115    22.757     6.802
     8   8 O        1.638    -0.376    20.390     6.095
     9   5 B        2.659     0.430    15.584     6.647
    10   6 C        2.934    -0.079    29.976     8.979
    11   6 C        2.891    -0.035    28.869     8.809
    12   6 C        2.908    -0.034    28.855     8.808
    13   1 H        0.926     0.028     2.614     2.528
    14   6 C        3.861    -0.015    20.804     6.487
    15   1 H        0.924     0.047     2.357     2.401
    16   6 C        2.865    -0.082    30.041     8.984
    17   5 B        2.661     0.431    15.568     6.642
    18   8 O        1.638    -0.370    20.295     6.081
    19   6 C        3.860     0.129    18.458     6.110
    20   6 C        3.755    -0.117    22.797     6.808
    21   6 C        3.755    -0.116    22.778     6.805
    22   6 C        3.860     0.129    18.456     6.110
    23   6 C        3.755    -0.116    22.784     6.806
    24   6 C        3.755    -0.117    22.805     6.809
    25   8 O        1.638    -0.370    20.293     6.081
    26   6 C        2.897    -0.027    28.671     8.779
    27   6 C        3.859    -0.009    20.707     6.472
    28   1 H        0.924     0.048     2.344     2.394
    29   6 C        2.962    -0.024    28.596     8.771
    30   6 C        2.888    -0.034    28.852     8.806
    31   6 C        2.910    -0.029    28.725     8.788
    32   1 H        0.926     0.030     2.590     2.517
    33   1 H        0.925     0.054     2.276     2.359
    34   1 H        0.925     0.039     2.463     2.454
    35   1 H        0.925     0.051     2.311     2.377
    36   1 H        0.925     0.051     2.303     2.373
    37   1 H        0.925     0.043     2.404     2.425
    38   1 H        0.925     0.042     2.425     2.435
    39   1 H        0.925     0.039     2.460     2.453
    40   1 H        0.925     0.052     2.295     2.369
    41   1 H        0.925     0.054     2.273     2.358
    42   1 H        0.925     0.042     2.424     2.435
    43   1 H        0.925     0.051     2.304     2.374
    44   1 H        0.925     0.042     2.422     2.434
    45   1 H        0.925     0.036     2.504     2.474
    46   1 H        0.925     0.054     2.271     2.356
    47   1 H        0.925     0.039     2.456     2.451
    48   1 H        0.925     0.052     2.297     2.370
    49   1 H        0.925     0.052     2.297     2.370
    50   1 H        0.925     0.044     2.398     2.422
    51   1 H        0.925     0.042     2.420     2.433
    52   1 H        0.925     0.043     2.416     2.431
    53   1 H        0.925     0.052     2.291     2.367
    54   1 H        0.925     0.044     2.401     2.423
    55   1 H        0.925     0.040     2.453     2.449
    56   1 H        0.925     0.052     2.293     2.368
    57   1 H        0.925     0.054     2.265     2.354
    58   1 H        0.925     0.037     2.487     2.466
    59   1 H        0.926     0.036     2.500     2.472
    60   1 H        0.925     0.026     2.638     2.540

 Mol. C6AA /au·bohr⁶  :      33350.887954
 Mol. C8AA /au·bohr⁸  :     773806.046785
 Mol. α(0) /au        :        277.646218


Wiberg/Mayer (AO) data.
largest (>0.10) Wiberg bond orders for each atom

 ---------------------------------------------------------------------------
     #   Z sym  total        # sym  WBO       # sym  WBO       # sym  WBO
 ---------------------------------------------------------------------------
     1   6 C    3.994 --     2 C    0.997    34 H    0.985    33 H    0.983
                            35 H    0.983
     2   6 C    3.944 --     1 C    0.997     4 C    0.990     3 O    0.955
                             5 C    0.937
     3   8 O    2.216 --     9 B    1.111     2 C    0.955
     4   6 C    3.994 --     2 C    0.990    38 H    0.985    37 H    0.984
                            36 H    0.983
     5   6 C    3.943 --     6 C    0.997     7 C    0.990     8 O    0.954
                             2 C    0.937
     6   6 C    3.994 --     5 C    0.997    39 H    0.985    41 H    0.983
                            40 H    0.982
     7   6 C    3.994 --     5 C    0.990    42 H    0.985    44 H    0.984
                            43 H    0.983
     8   8 O    2.220 --     9 B    1.115     5 C    0.954
     9   5 B    3.389 --     8 O    1.115     3 O    1.111    10 C    1.031
    10   6 C    3.929 --    11 C    1.358     9 B    1.031    27 C    0.937
                            29 C    0.314    31 C    0.163
    11   6 C    3.992 --    12 C    1.582    10 C    1.358    45 H    0.960
    12   6 C    3.967 --    11 C    1.582    13 H    0.971    14 C    0.971
                            31 C    0.201    29 C    0.151
    13   1 H    0.999 --    12 C    0.971
    14   6 C    3.994 --    16 C    0.989    31 C    0.980    12 C    0.971
                            15 H    0.971
    15   1 H    0.998 --    14 C    0.971
    16   6 C    3.977 --    26 C    1.855    17 B    0.999    14 C    0.989
    17   5 B    3.376 --    25 O    1.131    18 O    1.128    16 C    0.999
    18   8 O    2.235 --    17 B    1.128    19 C    0.953
    19   6 C    3.943 --    20 C    0.997    21 C    0.991    18 O    0.953
                            22 C    0.936
    20   6 C    3.994 --    19 C    0.997    47 H    0.985    46 H    0.983
                            48 H    0.982
    21   6 C    3.994 --    19 C    0.991    51 H    0.984    50 H    0.984
                            49 H    0.983
    22   6 C    3.943 --    24 C    0.996    23 C    0.990    25 O    0.953
                            19 C    0.936
    23   6 C    3.995 --    22 C    0.990    52 H    0.985    54 H    0.984
                            53 H    0.983
    24   6 C    3.994 --    22 C    0.996    55 H    0.985    57 H    0.983
                            56 H    0.982
    25   8 O    2.235 --    17 B    1.131    22 C    0.953
    26   6 C    3.987 --    16 C    1.855    27 C    1.018    58 H    0.966
    27   6 C    3.992 --    26 C    1.018    29 C    0.979    28 H    0.969
                            10 C    0.937
    28   1 H    0.997 --    27 C    0.969
    29   6 C    3.946 --    30 C    1.417    27 C    0.979    59 H    0.973
                            10 C    0.314    12 C    0.151
    30   6 C    3.993 --    31 C    1.542    29 C    1.417    60 H    0.962
    31   6 C    3.952 --    30 C    1.542    14 C    0.980    32 H    0.973
                            12 C    0.201    10 C    0.163
    32   1 H    0.999 --    31 C    0.973
    33   1 H    0.997 --     1 C    0.983
    34   1 H    0.998 --     1 C    0.985
    35   1 H    0.997 --     1 C    0.983
    36   1 H    0.997 --     4 C    0.983
    37   1 H    0.998 --     4 C    0.984
    38   1 H    0.998 --     4 C    0.985
    39   1 H    0.998 --     6 C    0.985
    40   1 H    0.997 --     6 C    0.982
    41   1 H    0.997 --     6 C    0.983
    42   1 H    0.998 --     7 C    0.985
    43   1 H    0.997 --     7 C    0.983
    44   1 H    0.998 --     7 C    0.984
    45   1 H    0.998 --    11 C    0.960
    46   1 H    0.997 --    20 C    0.983
    47   1 H    0.998 --    20 C    0.985
    48   1 H    0.997 --    20 C    0.982
    49   1 H    0.997 --    21 C    0.983
    50   1 H    0.998 --    21 C    0.984
    51   1 H    0.998 --    21 C    0.984
    52   1 H    0.998 --    23 C    0.985
    53   1 H    0.997 --    23 C    0.983
    54   1 H    0.998 --    23 C    0.984
    55   1 H    0.998 --    24 C    0.985
    56   1 H    0.997 --    24 C    0.982
    57   1 H    0.997 --    24 C    0.983
    58   1 H    0.998 --    26 C    0.966
    59   1 H    0.998 --    29 C    0.973
    60   1 H    0.999 --    30 C    0.962
 ---------------------------------------------------------------------------

Topologies differ in total number of bonds
Writing topology from bond orders to xtbtopo.mol

molecular dipole:
                 x           y           z       tot (Debye)
 q only:       -0.273      -0.241       0.071
   full:       -0.096      -0.271      -0.084       0.762
molecular quadrupole (traceless):
                xx          xy          yy          xz          yz          zz
 q only:      -31.602      23.259      24.021     -28.438     -12.967       7.580
  q+dip:      -26.030       6.995      31.221     -19.120       2.945      -5.191
   full:      -26.364       5.899      32.697     -20.531       1.539      -6.333

           -------------------------------------------------
          |                Geometry Summary                 |
           -------------------------------------------------

      molecular mass/u    :      382.1099696
   center of mass at/Å    :        2.9380399     -35.9606528      21.8429928
  moments of inertia/u·Å² :        0.1175393E+04   0.6930870E+04   0.7164156E+04
rotational constants/cm⁻¹ :        0.1434213E-01   0.2432253E-02   0.2353052E-02

 * 55 selected distances

     #   Z          #   Z                                           value/Å
     1   6 C        2   6 C                                       1.5270963
     2   6 C        3   8 O                                       1.4261615
     2   6 C        4   6 C                                       1.5341803
     5   6 C        6   6 C                                       1.5268087
     5   6 C        7   6 C                                       1.5343783
     5   6 C        8   8 O                                       1.4263008
     3   8 O        9   5 B                                       1.3726234
     8   8 O        9   5 B                                       1.3709865
     9   5 B       10   6 C                                       1.5445647
    10   6 C       11   6 C                                       1.4001721
    11   6 C       12   6 C                                       1.3626184
    12   6 C       13   1 H                                       1.0806499
    14   6 C       15   1 H                                       1.0919597
    16   6 C       17   5 B                                       1.5598148 (max)
    17   5 B       18   8 O                                       1.3682534
    18   8 O       19   6 C                                       1.4266629
    19   6 C       20   6 C                                       1.5270245
    19   6 C       21   6 C                                       1.5340294
    22   6 C       23   6 C                                       1.5340081
    22   6 C       24   6 C                                       1.5269521
    17   5 B       25   8 O                                       1.3668425
    22   6 C       25   8 O                                       1.4271961
    16   6 C       26   6 C                                       1.3327192
    27   6 C       28   1 H                                       1.0909408
    29   6 C       30   6 C                                       1.3854760
    30   6 C       31   6 C                                       1.3680210
    31   6 C       32   1 H                                       1.0806962
     1   6 C       33   1 H                                       1.0872158
     1   6 C       34   1 H                                       1.0865782
     1   6 C       35   1 H                                       1.0851371
     4   6 C       36   1 H                                       1.0877271
     4   6 C       37   1 H                                       1.0871876
     4   6 C       38   1 H                                       1.0858491
     6   6 C       39   1 H                                       1.0866509
     6   6 C       40   1 H                                       1.0850404
     6   6 C       41   1 H                                       1.0871716
     7   6 C       42   1 H                                       1.0858302
     7   6 C       43   1 H                                       1.0876387
     7   6 C       44   1 H                                       1.0872563
    11   6 C       45   1 H                                       1.0848636
    20   6 C       46   1 H                                       1.0872240
    20   6 C       47   1 H                                       1.0866914
    20   6 C       48   1 H                                       1.0851404
    21   6 C       49   1 H                                       1.0876738
    21   6 C       50   1 H                                       1.0871146
    21   6 C       51   1 H                                       1.0858594
    23   6 C       52   1 H                                       1.0858592
    23   6 C       53   1 H                                       1.0875557
    23   6 C       54   1 H                                       1.0871000
    24   6 C       55   1 H                                       1.0867054
    24   6 C       56   1 H                                       1.0851160
    24   6 C       57   1 H                                       1.0871499
    26   6 C       58   1 H                                       1.0816889
    29   6 C       59   1 H                                       1.0792912 (min)
    30   6 C       60   1 H                                       1.0855518

 * 5 distinct bonds (by element types)

   Z      Z             #   av. dist./Å        max./Å        min./Å
   1 H    6 C          32     1.0860661     1.0919597     1.0792912
   5 B    6 C           2     1.5521897     1.5598148     1.5445647
   6 C    6 C          13     1.4687296     1.5343783     1.3327192
   5 B    8 O           4     1.3696764     1.3726234     1.3668425
   6 C    8 O           4     1.4265803     1.4271961     1.4261615


optimized geometry written to: xtbopt.xyz


           -------------------------------------------------
          | TOTAL ENERGY              -82.276790782006 Eh   |
          | GRADIENT NORM               0.000307143559 Eh/α |
          | HOMO-LUMO GAP               1.336008312977 eV   |
           -------------------------------------------------

------------------------------------------------------------------------
 * finished run on 2022/07/09 at 18:33:26.647     
------------------------------------------------------------------------
 total:
 * wall-time:     0 d,  0 h,  0 min,  2.302 sec
 *  cpu-time:     0 d,  0 h,  0 min,  2.299 sec
 * ratio c/w:     0.999 speedup
 SCF:
 * wall-time:     0 d,  0 h,  0 min,  0.072 sec
 *  cpu-time:     0 d,  0 h,  0 min,  0.072 sec
 * ratio c/w:     0.999 speedup
 ANC optimizer:
 * wall-time:     0 d,  0 h,  0 min,  2.218 sec
 *  cpu-time:     0 d,  0 h,  0 min,  2.215 sec
 * ratio c/w:     0.999 speedup

