      -----------------------------------------------------------      
     |                   =====================                   |     
     |                           x T B                           |     
     |                   =====================                   |     
     |                         S. Grimme                         |     
     |          Mulliken Center for Theoretical Chemistry        |     
     |                    University of Bonn                     |     
      -----------------------------------------------------------      

   * xtb version 6.5.0 (homebrew) compiled by 'nhattrup@GPGGRP-SHANNON.CHEME.CMU.EDU' on 

   xtb is free software: you can redistribute it and/or modify it under
   the terms of the GNU Lesser General Public License as published by
   the Free Software Foundation, either version 3 of the License, or
   (at your option) any later version.
   
   xtb is distributed in the hope that it will be useful,
   but WITHOUT ANY WARRANTY; without even the implied warranty of
   MERCHANTABILITY or FITNESS FOR A PARTICULAR PURPOSE.  See the
   GNU Lesser General Public License for more details.
   
   Cite this work as:
   * C. Bannwarth, E. Caldeweyher, S. Ehlert, A. Hansen, P. Pracht,
     J. Seibert, S. Spicher, S. Grimme, WIREs Comput. Mol. Sci., 2020, 11,
     e01493. DOI: 10.1002/wcms.1493
   
   for GFN2-xTB:
   * C. Bannwarth, S. Ehlert and S. Grimme., J. Chem. Theory Comput., 2019,
     15, 1652-1671. DOI: 10.1021/acs.jctc.8b01176
   for GFN1-xTB:
   * S. Grimme, C. Bannwarth, P. Shushkov, J. Chem. Theory Comput., 2017,
     13, 1989-2009. DOI: 10.1021/acs.jctc.7b00118
   for GFN0-xTB:
   * P. Pracht, E. Caldeweyher, S. Ehlert, S. Grimme, ChemRxiv, 2019, preprint.
     DOI: 10.26434/chemrxiv.8326202.v1
   for GFN-FF:
   * S. Spicher and S. Grimme, Angew. Chem. Int. Ed., 2020, 59, 15665-15673.
     DOI: 10.1002/anie.202004239
   
   for ALPB and GBSA implicit solvation:
   * S. Ehlert, M. Stahn, S. Spicher, S. Grimme, J. Chem. Theory Comput.,
     2021, 17, 4250-4261. DOI: 10.1021/acs.jctc.1c00471
   
   for DFT-D4:
   * E. Caldeweyher, C. Bannwarth and S. Grimme, J. Chem. Phys., 2017,
     147, 034112. DOI: 10.1063/1.4993215
   * E. Caldeweyher, S. Ehlert, A. Hansen, H. Neugebauer, S. Spicher,
     C. Bannwarth and S. Grimme, J. Chem. Phys., 2019, 150, 154122.
     DOI: 10.1063/1.5090222
   * E. Caldeweyher, J.-M. Mewes, S. Ehlert and S. Grimme, Phys. Chem. Chem. Phys.
     2020, 22, 8499-8512. DOI: 10.1039/D0CP00502A
   
   for sTDA-xTB:
   * S. Grimme and C. Bannwarth, J. Chem. Phys., 2016, 145, 054103.
     DOI: 10.1063/1.4959605
   
   in the mass-spec context:
   * V. Asgeirsson, C. Bauer and S. Grimme, Chem. Sci., 2017, 8, 4879.
     DOI: 10.1039/c7sc00601b
   * J. Koopman and S. Grimme, ACS Omega 2019, 4, 12, 15120-15133.
     DOI: 10.1021/acsomega.9b02011
   
   for metadynamics refer to:
   * S. Grimme, J. Chem. Theory Comput., 2019, 155, 2847-2862
     DOI: 10.1021/acs.jctc.9b00143
   
   for SPH calculations refer to:
   * S. Spicher and S. Grimme, J. Chem. Theory Comput., 2021, 17, 1701-1714
     DOI: 10.1021/acs.jctc.0c01306
   
   with help from (in alphabetical order)
   P. Atkinson, C. Bannwarth, F. Bohle, G. Brandenburg, E. Caldeweyher
   M. Checinski, S. Dohm, S. Ehlert, S. Ehrlich, I. Gerasimov, C. Hölzer
   A. Katbashev, J. Koopman, C. Lavigne, S. Lehtola, F. März, M. Müller,
   F. Musil, H. Neugebauer, J. Pisarek, C. Plett, P. Pracht, F. Pultar,
   J. Seibert, P. Shushkov, S. Spicher, M. Stahn, M. Steiner, T. Strunk,
   J. Stückrath, T. Rose, and J. Unsleber
   
 * started run on 2022/07/09 at 18:33:22.705     

           -------------------------------------------------
          |                Calculation Setup                |
           -------------------------------------------------

          program call               : /opt/homebrew/bin/xtb bvl_bpin2_scan_2-7_xtb.xyz --chrg 0 --uhf 0 --opt --input xcontrol_bvl_bpin2_scan_2-7_xtb
          coordinate file            : bvl_bpin2_scan_2-7_xtb.xyz
          omp threads                :                     1

   ID    Z sym.   atoms
    1    6 C      1, 2, 4-7, 10-12, 14, 16, 19-24, 26, 27, 29-31
    2    8 O      3, 8, 18, 25
    3    5 B      9, 17
    4    1 H      13, 15, 28, 32-60
constraining bond 12 31 to    1.7222000 Å, actual value:    1.6120607 Å
constraining bond 10 29 to    1.7222000 Å, actual value:    1.8358050 Å

           -------------------------------------------------
          |                 G F N 2 - x T B                 |
           -------------------------------------------------

        Reference                      10.1021/acs.jctc.8b01176
      * Hamiltonian:
        H0-scaling (s, p, d)           1.850000    2.230000    2.230000
        zeta-weighting                 0.500000
      * Dispersion:
        s8                             2.700000
        a1                             0.520000
        a2                             5.000000
        s9                             5.000000
      * Repulsion:
        kExp                           1.500000    1.000000
        rExp                           1.000000
      * Coulomb:
        alpha                          2.000000
        third order                    shell-resolved
        anisotropic                    true
        a3                             3.000000
        a5                             4.000000
        cn-shift                       1.200000
        cn-exp                         4.000000
        max-rad                        5.000000


          ...................................................
          :                      SETUP                      :
          :.................................................:
          :  # basis functions                 144          :
          :  # atomic orbitals                 144          :
          :  # shells                           88          :
          :  # electrons                       150          :
          :  max. iterations                   250          :
          :  Hamiltonian                  GFN2-xTB          :
          :  restarted?                      false          :
          :  GBSA solvation                  false          :
          :  PC potential                    false          :
          :  electronic temp.          300.0000000     K    :
          :  accuracy                    1.0000000          :
          :  -> integral cutoff          0.2500000E+02      :
          :  -> integral neglect         0.1000000E-07      :
          :  -> SCF convergence          0.1000000E-05 Eh   :
          :  -> wf. convergence          0.1000000E-03 e    :
          :  Broyden damping             0.4000000          :
          ...................................................

 iter      E             dE          RMSdq      gap      omega  full diag
   1    -82.9417035 -0.829417E+02  0.463E+00    2.94       0.0  T
   2    -83.3289044 -0.387201E+00  0.286E+00    2.43       1.0  T
   3    -83.3426274 -0.137229E-01  0.136E+00    2.77       1.0  T
   4    -83.3634130 -0.207856E-01  0.423E-01    2.62       1.0  T
   5    -83.3752068 -0.117938E-01  0.172E-01    2.67       1.0  T
   6    -83.3756548 -0.448051E-03  0.111E-01    2.68       1.0  T
   7    -83.3759097 -0.254890E-03  0.270E-02    2.67       1.0  T
   8    -83.3759299 -0.201953E-04  0.806E-03    2.67       1.6  T
   9    -83.3759310 -0.112115E-05  0.363E-03    2.67       3.6  T
  10    -83.3759311 -0.650843E-07  0.162E-03    2.67       8.0  T
  11    -83.3759312 -0.915523E-07  0.567E-04    2.67      22.8  T
  12    -83.3759312 -0.126899E-07  0.270E-04    2.67      47.8  T

   *** convergence criteria satisfied after 12 iterations ***

         #    Occupation            Energy/Eh            Energy/eV
      -------------------------------------------------------------
         1        2.0000           -0.6912400             -18.8096
       ...           ...                  ...                  ...
        69        2.0000           -0.4083662             -11.1122
        70        2.0000           -0.4000350             -10.8855
        71        2.0000           -0.3979831             -10.8297
        72        2.0000           -0.3957971             -10.7702
        73        2.0000           -0.3793543             -10.3228
        74        2.0000           -0.3717651             -10.1162
        75        2.0000           -0.3224703              -8.7749 (HOMO)
        76                         -0.2241987              -6.1008 (LUMO)
        77                         -0.2156182              -5.8673
        78                         -0.1607482              -4.3742
        79                         -0.1029353              -2.8010
        80                         -0.0744794              -2.0267
       ...                                ...                  ...
       144                          0.6979260              18.9915
      -------------------------------------------------------------
                  HL-Gap            0.0982715 Eh            2.6741 eV
             Fermi-level           -0.2733345 Eh           -7.4378 eV

 SCC (total)                   0 d,  0 h,  0 min,  0.068 sec
 SCC setup                      ...        0 min,  0.000 sec (  0.372%)
 Dispersion                     ...        0 min,  0.000 sec (  0.606%)
 classical contributions        ...        0 min,  0.000 sec (  0.275%)
 integral evaluation            ...        0 min,  0.006 sec (  9.003%)
 iterations                     ...        0 min,  0.033 sec ( 48.451%)
 molecular gradient             ...        0 min,  0.028 sec ( 40.754%)
 printout                       ...        0 min,  0.000 sec (  0.531%)

         :::::::::::::::::::::::::::::::::::::::::::::::::::::
         ::                     SUMMARY                     ::
         :::::::::::::::::::::::::::::::::::::::::::::::::::::
         :: total energy             -82.121091490923 Eh    ::
         :: gradient norm              1.679650434290 Eh/a0 ::
         :: HOMO-LUMO gap              2.674104218792 eV    ::
         ::.................................................::
         :: SCC energy               -83.375931203090 Eh    ::
         :: -> isotropic ES            0.148049622739 Eh    ::
         :: -> anisotropic ES          0.011162303560 Eh    ::
         :: -> anisotropic XC          0.025847915422 Eh    ::
         :: -> dispersion             -0.060899115840 Eh    ::
         :: repulsion energy           1.075391475575 Eh    ::
         :: add. restraining           0.178815735191 Eh    ::
         :: total charge              -0.000000000000 e     ::
         :::::::::::::::::::::::::::::::::::::::::::::::::::::

      ----------------------------------------------------------- 
     |                   =====================                   |
     |                        A N C O P T                        |
     |                   =====================                   |
     |               Approximate Normal Coordinate               |
     |                Rational Function Optimizer                |
      ----------------------------------------------------------- 

          ...................................................
          :                      SETUP                      :
          :.................................................:
          :   optimization level            normal          :
          :   max. optcycles                   200          :
          :   ANC micro-cycles                  20          :
          :   degrees of freedom               174          :
          :.................................................:
          :   RF solver                   davidson          :
          :   write xtbopt.log                true          :
          :   linear?                        false          :
          :   energy convergence         0.5000000E-05 Eh   :
          :   grad. convergence          0.1000000E-02 Eh/α :
          :   maximium RF displ.         1.0000000          :
          :   Hlow (freq-cutoff)         0.1000000E-01      :
          :   Hmax (freq-cutoff)         5.0000000          :
          :   S6 in model hess.         20.0000000          :
          ...................................................

generating ANC from model Hessian ...
Using Lindh-Hessian (1995)
 Shifting diagonal of input Hessian by   0.20107456790705872     
 Lowest  eigenvalues of input Hessian
    0.010000    0.130822    0.000000    0.000000    0.000000    0.000000
    0.000000    0.000000    0.201192    0.201219    0.201368    0.202730
    0.202966    0.203899    0.204365    0.204435    0.205755    0.206239
 Highest eigenvalues
    1.923634    1.988981    2.128578    2.228491    9.019472    9.341724


........................................................................
.............................. CYCLE    1 ..............................
........................................................................
   1    -83.3759312 -0.833759E+02  0.143E-04    2.67       0.0  T
   2    -83.3759312 -0.124241E-08  0.848E-05    2.67     152.3  T
   3    -83.3759312 -0.435065E-09  0.309E-05    2.67     418.3  T
     SCC iter.                  ...        0 min,  0.008 sec
     gradient                   ...        0 min,  0.028 sec
 * total energy  :   -82.1210915 Eh     change       -0.9712551E-09 Eh
   gradient norm :     1.6796511 Eh/α   predicted     0.0000000E+00 (-100.00%)
   displ. norm   :     0.3103207 α      lambda       -0.5158134E+00
   maximum displ.:     0.2324399 α      in ANC's #174, #173, #128, ...

........................................................................
.............................. CYCLE    2 ..............................
........................................................................
   1    -83.3673846 -0.833674E+02  0.432E-01    2.65       0.0  T
   2    -83.3677222 -0.337562E-03  0.289E-01    2.62       1.0  T
   3    -83.3661258  0.159640E-02  0.162E-01    2.63       1.0  T
   4    -83.3680172 -0.189139E-02  0.331E-02    2.62       1.0  T
   5    -83.3680789 -0.617353E-04  0.667E-03    2.62       1.9  T
   6    -83.3680794 -0.459022E-06  0.341E-03    2.62       3.8  T
   7    -83.3680795 -0.125489E-06  0.121E-03    2.62      10.7  T
   8    -83.3680795 -0.314258E-07  0.560E-04    2.62      23.0  T
   9    -83.3680796 -0.144769E-07  0.210E-04    2.62      61.5  T
     SCC iter.                  ...        0 min,  0.024 sec
     gradient                   ...        0 min,  0.028 sec
 * total energy  :   -82.2545087 Eh     change       -0.1334172E+00 Eh
   gradient norm :     0.8197891 Eh/α   predicted    -0.2828206E+00 ( 111.98%)
   displ. norm   :     0.1051885 α      lambda       -0.8230996E-01
   maximum displ.:     0.0746914 α      in ANC's #174, #173, #170, ...

........................................................................
.............................. CYCLE    3 ..............................
........................................................................
   1    -83.3698775 -0.833699E+02  0.133E-01    2.61       0.0  T
   2    -83.3699802 -0.102660E-03  0.100E-01    2.62       1.0  T
   3    -83.3699381  0.421181E-04  0.495E-02    2.62       1.0  T
   4    -83.3700461 -0.107999E-03  0.177E-02    2.62       1.0  T
   5    -83.3700633 -0.172483E-04  0.251E-03    2.62       5.1  T
   6    -83.3700635 -0.127049E-06  0.136E-03    2.62       9.5  T
   7    -83.3700635 -0.160251E-07  0.400E-04    2.62      32.2  T
   8    -83.3700635 -0.241769E-08  0.229E-04    2.62      56.5  T
     SCC iter.                  ...        0 min,  0.022 sec
     gradient                   ...        0 min,  0.029 sec
 * total energy  :   -82.2968152 Eh     change       -0.4230651E-01 Eh
   gradient norm :     0.0349023 Eh/α   predicted    -0.4161039E-01 (  -1.65%)
   displ. norm   :     0.0385487 α      lambda       -0.9542115E-03
   maximum displ.:     0.0124848 α      in ANC's #1, #37, #109, ...

........................................................................
.............................. CYCLE    4 ..............................
........................................................................
   1    -83.3699003 -0.833699E+02  0.283E-02    2.62       0.0  T
   2    -83.3699095 -0.920195E-05  0.181E-02    2.62       1.0  T
   3    -83.3699115 -0.194777E-05  0.105E-02    2.62       1.2  T
   4    -83.3699134 -0.194451E-05  0.418E-03    2.62       3.1  T
   5    -83.3699143 -0.885402E-06  0.676E-04    2.62      19.1  T
   6    -83.3699143 -0.205311E-07  0.262E-04    2.62      49.2  T
     SCC iter.                  ...        0 min,  0.016 sec
     gradient                   ...        0 min,  0.028 sec
 * total energy  :   -82.2975490 Eh     change       -0.7338172E-03 Eh
   gradient norm :     0.0191382 Eh/α   predicted    -0.4781828E-03 ( -34.84%)
   displ. norm   :     0.2634206 α      lambda       -0.1668967E-02
   maximum displ.:     0.2459997 α      in ANC's #1, #37, #109, ...

........................................................................
.............................. CYCLE    5 ..............................
........................................................................
   1    -83.3639343 -0.833639E+02  0.166E-01    2.63       0.0  T
   2    -83.3639864 -0.520449E-04  0.998E-02    2.63       1.0  T
   3    -83.3638566  0.129821E-03  0.696E-02    2.63       1.0  T
   4    -83.3640467 -0.190097E-03  0.151E-02    2.63       1.0  T
   5    -83.3640625 -0.157971E-04  0.171E-03    2.63       7.5  T
   6    -83.3640625 -0.457738E-07  0.100E-03    2.63      12.9  T
   7    -83.3640625 -0.780763E-08  0.321E-04    2.63      40.3  T
     SCC iter.                  ...        0 min,  0.019 sec
     gradient                   ...        0 min,  0.028 sec
 * total energy  :   -82.2939503 Eh     change        0.3598646E-02 Eh
   gradient norm :     0.0774027 Eh/α   predicted    -0.8924647E-03 (-124.80%)
   displ. norm   :     0.2417004 α      lambda       -0.8746167E-02
   maximum displ.:     0.2410217 α      in ANC's #1, #39, #37, ...

........................................................................
.............................. CYCLE    6 ..............................
........................................................................
   1    -83.3693241 -0.833693E+02  0.151E-01    2.62       0.0  T
   2    -83.3693386 -0.144787E-04  0.908E-02    2.61       1.0  T
   3    -83.3692128  0.125770E-03  0.662E-02    2.62       1.0  T
   4    -83.3693903 -0.177478E-03  0.102E-02    2.62       1.3  T
   5    -83.3693977 -0.741868E-05  0.138E-03    2.62       9.4  T
   6    -83.3693977  0.179797E-08  0.537E-04    2.62      24.0  T
   7    -83.3693977 -0.111217E-07  0.143E-04    2.62      90.1  T
     SCC iter.                  ...        0 min,  0.019 sec
     gradient                   ...        0 min,  0.028 sec
 * total energy  :   -82.2979180 Eh     change       -0.3967658E-02 Eh
   gradient norm :     0.0197760 Eh/α   predicted    -0.4628442E-02 (  16.65%)
   displ. norm   :     0.0459758 α      lambda       -0.4713215E-03
   maximum displ.:     0.0136064 α      in ANC's #109, #119, #37, ...

........................................................................
.............................. CYCLE    7 ..............................
........................................................................
   1    -83.3700224 -0.833700E+02  0.371E-02    2.62       0.0  T
   2    -83.3700384 -0.159301E-04  0.232E-02    2.62       1.0  T
   3    -83.3700415 -0.311922E-05  0.134E-02    2.62       1.0  T
   4    -83.3700449 -0.340603E-05  0.502E-03    2.62       2.6  T
   5    -83.3700461 -0.125486E-05  0.908E-04    2.62      14.2  T
   6    -83.3700462 -0.364000E-07  0.339E-04    2.62      38.1  T
   7    -83.3700462 -0.105987E-08  0.122E-04    2.62     105.7  T
     SCC iter.                  ...        0 min,  0.019 sec
     gradient                   ...        0 min,  0.028 sec
 * total energy  :   -82.2980353 Eh     change       -0.1173334E-03 Eh
   gradient norm :     0.0064325 Eh/α   predicted    -0.2350951E-03 ( 100.37%)
   displ. norm   :     0.0251558 α      lambda       -0.2335478E-03
   maximum displ.:     0.0099761 α      in ANC's #37, #39, #43, ...

........................................................................
.............................. CYCLE    8 ..............................
........................................................................
   1    -83.3699637 -0.833700E+02  0.146E-02    2.62       0.0  T
   2    -83.3699653 -0.151066E-05  0.891E-03    2.62       1.4  T
   3    -83.3699651  0.167102E-06  0.503E-03    2.62       2.6  T
   4    -83.3699659 -0.817561E-06  0.145E-03    2.62       8.9  T
   5    -83.3699660 -0.109678E-06  0.291E-04    2.62      44.4  T
   6    -83.3699660 -0.312167E-08  0.126E-04    2.62     102.8  T
     SCC iter.                  ...        0 min,  0.016 sec
     gradient                   ...        0 min,  0.028 sec
 * total energy  :   -82.2981108 Eh     change       -0.7543852E-04 Eh
   gradient norm :     0.0030348 Eh/α   predicted    -0.5949504E-04 ( -21.13%)
   displ. norm   :     0.0223413 α      lambda       -0.1354797E-03
   maximum displ.:     0.0097111 α      in ANC's #37, #39, #40, ...

........................................................................
.............................. CYCLE    9 ..............................
........................................................................
   1    -83.3700734 -0.833701E+02  0.106E-02    2.62       0.0  T
   2    -83.3700735 -0.735134E-07  0.630E-03    2.62       2.0  T
   3    -83.3700730  0.423991E-06  0.276E-03    2.62       4.7  T
   4    -83.3700735 -0.474751E-06  0.504E-04    2.62      25.6  T
   5    -83.3700735 -0.149833E-07  0.147E-04    2.62      87.6  T
     SCC iter.                  ...        0 min,  0.014 sec
     gradient                   ...        0 min,  0.028 sec
 * total energy  :   -82.2981468 Eh     change       -0.3600498E-04 Eh
   gradient norm :     0.0034708 Eh/α   predicted    -0.2269489E-04 ( -36.97%)
   displ. norm   :     0.0431306 α      lambda       -0.2806688E-03
   maximum displ.:     0.0182338 α      in ANC's #37, #39, #40, ...

........................................................................
.............................. CYCLE   10 ..............................
........................................................................
   1    -83.3703981 -0.833704E+02  0.207E-02    2.62       0.0  T
   2    -83.3703982 -0.159077E-06  0.123E-02    2.62       1.1  T
   3    -83.3703970  0.123273E-05  0.479E-03    2.62       2.7  T
   4    -83.3703983 -0.134218E-05  0.703E-04    2.62      18.4  T
   5    -83.3703984 -0.256437E-07  0.272E-04    2.62      47.5  T
   6    -83.3703984 -0.944411E-09  0.115E-04    2.62     112.3  T
     SCC iter.                  ...        0 min,  0.016 sec
     gradient                   ...        0 min,  0.028 sec
 * total energy  :   -82.2981915 Eh     change       -0.4473170E-04 Eh
   gradient norm :     0.0029996 Eh/α   predicted    -0.3524669E-04 ( -21.20%)
   displ. norm   :     0.0199187 α      lambda       -0.1011401E-03
   maximum displ.:     0.0069587 α      in ANC's #37, #39, #40, ...

........................................................................
.............................. CYCLE   11 ..............................
........................................................................
   1    -83.3706648 -0.833707E+02  0.993E-03    2.62       0.0  T
   2    -83.3706650 -0.202428E-06  0.592E-03    2.62       2.2  T
   3    -83.3706647  0.324911E-06  0.273E-03    2.62       4.7  T
   4    -83.3706651 -0.390013E-06  0.658E-04    2.62      19.6  T
   5    -83.3706651 -0.265569E-07  0.193E-04    2.62      66.8  T
     SCC iter.                  ...        0 min,  0.018 sec
     gradient                   ...        0 min,  0.028 sec
 * total energy  :   -82.2982055 Eh     change       -0.1403145E-04 Eh
   gradient norm :     0.0019283 Eh/α   predicted    -0.1017766E-04 ( -27.47%)
   displ. norm   :     0.0196715 α      lambda       -0.6732733E-04
   maximum displ.:     0.0062733 α      in ANC's #11, #6, #28, ...

........................................................................
.............................. CYCLE   12 ..............................
........................................................................
   1    -83.3710212 -0.833710E+02  0.917E-03    2.62       0.0  T
   2    -83.3710215 -0.299530E-06  0.552E-03    2.62       2.3  T
   3    -83.3710213  0.185543E-06  0.252E-03    2.62       5.1  T
   4    -83.3710216 -0.301617E-06  0.257E-04    2.62      50.2  T
   5    -83.3710216 -0.211558E-08  0.113E-04    2.62     114.1  T
     SCC iter.                  ...        0 min,  0.014 sec
     gradient                   ...        0 min,  0.028 sec
 * total energy  :   -82.2982151 Eh     change       -0.9528558E-05 Eh
   gradient norm :     0.0020208 Eh/α   predicted    -0.5648396E-05 ( -40.72%)
   displ. norm   :     0.0078988 α      lambda       -0.4726927E-04
   maximum displ.:     0.0028553 α      in ANC's #11, #6, #43, ...

........................................................................
.............................. CYCLE   13 ..............................
........................................................................
   1    -83.3711321 -0.833711E+02  0.281E-03    2.62       0.0  T
   2    -83.3711321 -0.912551E-08  0.169E-03    2.62       7.7  T
   3    -83.3711320  0.530450E-07  0.111E-03    2.62      11.6  T
   4    -83.3711321 -0.621646E-07  0.171E-04    2.62      75.5  T
   5    -83.3711321 -0.154412E-08  0.462E-05    2.62     279.7  T
     SCC iter.                  ...        0 min,  0.014 sec
     gradient                   ...        0 min,  0.028 sec
 * total energy  :   -82.2982209 Eh     change       -0.5830802E-05 Eh
   gradient norm :     0.0019405 Eh/α   predicted    -0.3391259E-05 ( -41.84%)
   displ. norm   :     0.0549719 α      lambda       -0.2074883E-03
   maximum displ.:     0.0206196 α      in ANC's #11, #6, #8, ...

........................................................................
.............................. CYCLE   14 ..............................
........................................................................
   1    -83.3716478 -0.833716E+02  0.172E-02    2.62       0.0  T
   2    -83.3716481 -0.250856E-06  0.107E-02    2.62       1.2  T
   3    -83.3716459  0.214318E-05  0.797E-03    2.62       1.6  T
   4    -83.3716488 -0.286684E-05  0.930E-04    2.62      13.9  T
   5    -83.3716488 -0.498013E-07  0.295E-04    2.62      43.8  T
   6    -83.3716488 -0.232893E-08  0.141E-04    2.62      91.5  T
     SCC iter.                  ...        0 min,  0.016 sec
     gradient                   ...        0 min,  0.028 sec
 * total energy  :   -82.2982352 Eh     change       -0.1426926E-04 Eh
   gradient norm :     0.0030026 Eh/α   predicted    -0.1310296E-04 (  -8.17%)
   displ. norm   :     0.0046368 α      lambda       -0.5894820E-04
   maximum displ.:     0.0016104 α      in ANC's #43, #109, #37, ...

........................................................................
.............................. CYCLE   15 ..............................
........................................................................
   1    -83.3715867 -0.833716E+02  0.332E-03    2.62       0.0  T
   2    -83.3715868 -0.120418E-07  0.196E-03    2.62       6.6  T
   3    -83.3715867  0.474196E-07  0.112E-03    2.62      11.6  T
   4    -83.3715868 -0.553958E-07  0.191E-04    2.62      67.6  T
   5    -83.3715868 -0.209933E-08  0.485E-05    2.62     266.1  T
     SCC iter.                  ...        0 min,  0.014 sec
     gradient                   ...        0 min,  0.028 sec
 * total energy  :   -82.2982406 Eh     change       -0.5419076E-05 Eh
   gradient norm :     0.0017281 Eh/α   predicted    -0.3338496E-05 ( -38.39%)
   displ. norm   :     0.0174255 α      lambda       -0.1110951E-03
   maximum displ.:     0.0054824 α      in ANC's #6, #11, #109, ...

........................................................................
.............................. CYCLE   16 ..............................
........................................................................
   1    -83.3714051 -0.833714E+02  0.106E-02    2.62       0.0  T
   2    -83.3714052 -0.121148E-06  0.625E-03    2.62       2.1  T
   3    -83.3714048  0.446145E-06  0.334E-03    2.62       3.9  T
   4    -83.3714053 -0.511803E-06  0.628E-04    2.62      20.6  T
   5    -83.3714053 -0.211963E-07  0.153E-04    2.62      84.6  T
     SCC iter.                  ...        0 min,  0.014 sec
     gradient                   ...        0 min,  0.028 sec
 * total energy  :   -82.2982480 Eh     change       -0.7394417E-05 Eh
   gradient norm :     0.0024081 Eh/α   predicted    -0.5677334E-05 ( -23.22%)
   displ. norm   :     0.0087060 α      lambda       -0.3630873E-04
   maximum displ.:     0.0035070 α      in ANC's #11, #6, #8, ...

........................................................................
.............................. CYCLE   17 ..............................
........................................................................
   1    -83.3714481 -0.833714E+02  0.218E-03    2.62       0.0  T
   2    -83.3714481 -0.257258E-08  0.134E-03    2.62       9.6  T
   3    -83.3714481  0.255822E-07  0.695E-04    2.62      18.6  T
   4    -83.3714481 -0.279647E-07  0.887E-05    2.62     145.5  T
     SCC iter.                  ...        0 min,  0.011 sec
     gradient                   ...        0 min,  0.028 sec
 * total energy  :   -82.2982510 Eh     change       -0.2991713E-05 Eh
   gradient norm :     0.0017892 Eh/α   predicted    -0.1685284E-05 ( -43.67%)
   displ. norm   :     0.0131956 α      lambda       -0.4903388E-04
   maximum displ.:     0.0053167 α      in ANC's #11, #6, #8, ...

........................................................................
.............................. CYCLE   18 ..............................
........................................................................
   1    -83.3715103 -0.833715E+02  0.327E-03    2.62       0.0  T
   2    -83.3715103 -0.594633E-08  0.201E-03    2.62       6.4  T
   3    -83.3715103  0.539878E-07  0.101E-03    2.62      12.8  T
   4    -83.3715103 -0.588746E-07  0.136E-04    2.62      95.1  T
   5    -83.3715103 -0.914838E-09  0.532E-05    2.62     242.5  T
     SCC iter.                  ...        0 min,  0.014 sec
     gradient                   ...        0 min,  0.028 sec
 * total energy  :   -82.2982542 Eh     change       -0.3188109E-05 Eh
   gradient norm :     0.0011121 Eh/α   predicted    -0.2307364E-05 ( -27.63%)
   displ. norm   :     0.0133042 α      lambda       -0.2414186E-04
   maximum displ.:     0.0053623 α      in ANC's #11, #6, #8, ...

........................................................................
.............................. CYCLE   19 ..............................
........................................................................
   1    -83.3715695 -0.833716E+02  0.330E-03    2.62       0.0  T
   2    -83.3715695 -0.664522E-08  0.202E-03    2.62       6.4  T
   3    -83.3715695  0.494355E-07  0.979E-04    2.62      13.2  T
   4    -83.3715695 -0.537789E-07  0.147E-04    2.62      87.6  T
     SCC iter.                  ...        0 min,  0.011 sec
     gradient                   ...        0 min,  0.028 sec
 * total energy  :   -82.2982557 Eh     change       -0.1560738E-05 Eh
   gradient norm :     0.0013088 Eh/α   predicted    -0.1040761E-05 ( -33.32%)
   displ. norm   :     0.0171671 α      lambda       -0.4007158E-04
   maximum displ.:     0.0074720 α      in ANC's #6, #11, #8, ...

........................................................................
.............................. CYCLE   20 ..............................
........................................................................
   1    -83.3715635 -0.833716E+02  0.471E-03    2.62       0.0  T
   2    -83.3715635 -0.218428E-08  0.285E-03    2.62       4.5  T
   3    -83.3715633  0.190849E-06  0.191E-03    2.62       6.8  T
   4    -83.3715635 -0.214956E-06  0.123E-04    2.62     105.3  T
   5    -83.3715635 -0.539416E-09  0.594E-05    2.62     217.5  T
     SCC iter.                  ...        0 min,  0.014 sec
     gradient                   ...        0 min,  0.028 sec
 * total energy  :   -82.2982590 Eh     change       -0.3271005E-05 Eh
   gradient norm :     0.0009532 Eh/α   predicted    -0.1456790E-05 ( -55.46%)
   displ. norm   :     0.0228419 α      lambda       -0.5128407E-04
   maximum displ.:     0.0104415 α      in ANC's #6, #11, #8, ...

   *** GEOMETRY OPTIMIZATION CONVERGED AFTER 20 ITERATIONS ***

------------------------------------------------------------------------
 total energy gain   :        -0.1771675 Eh     -111.1743 kcal/mol
 total RMSD          :         0.0484686 a0        0.0256 Å
 total power (kW/mol):       -23.2576604 (step) -440.6086 (real)
------------------------------------------------------------------------

 ANCopt (total)                0 d,  0 h,  0 min,  1.056 sec
 optimizer setup                ...        0 min,  0.000 sec (  0.008%)
 model hessian                  ...        0 min,  0.033 sec (  3.130%)
 ANC generation                 ...        0 min,  0.003 sec (  0.257%)
 coordinate transformation      ...        0 min,  0.000 sec (  0.029%)
 single point calculation       ...        0 min,  1.012 sec ( 95.857%)
 optimization log               ...        0 min,  0.004 sec (  0.396%)
 hessian update                 ...        0 min,  0.000 sec (  0.044%)
 rational function              ...        0 min,  0.002 sec (  0.199%)

================
 final structure:
================
60
 xtb: 6.5.0 (homebrew)
C            3.47492693081390      -37.74799898914531       15.91159210423951
C            3.71830984699566      -38.14381378244587       17.36621393504635
O            3.24459705462607      -37.10780648649776       18.22722412048614
C            2.89860392277008      -39.39968186829086       17.68754717866396
C            5.23159694053300      -38.27900999898419       17.77204905874612
C            5.74590843258805      -39.71289966070535       17.87333483955499
C            6.16980529285196      -37.47108680409039       16.86697102550052
O            5.27714566505443      -37.66758727764515       19.06231552638973
B            4.14327749901914      -36.93158824797840       19.24258200939491
C            3.89551643762268      -35.98588666050251       20.46607141950736
C            4.92863830323672      -35.87111930339583       21.41578769280759
C            4.97097730110818      -34.92990704722752       22.44381961546990
H            5.91394281418723      -34.84564176818222       22.97174584330158
C            3.80721022173259      -34.26514723225593       23.10949891033722
H            4.05071804864985      -33.86721224864882       24.08995097579110
C            2.45307316986903      -34.88714722571972       23.12902247482980
B            1.70092054722737      -34.90031922531907       24.49444920621319
O            2.20903721387170      -34.38114915730189       25.65444700271330
C            1.34236379974366      -34.73282192549350       26.73212890528731
C            1.20049018795424      -33.54657979102669       27.68304077003285
C            2.00909357585074      -35.89668515141489       27.47682931611166
C            0.01823727063964      -35.15682092054752       25.99892954150644
C           -0.99579001853789      -34.01114772445384       25.88799227053753
C           -0.67671495299502      -36.38500749260339       26.58224091713830
O            0.46134372967754      -35.44783247712478       24.67425295524276
C            1.89440655645797      -35.44663282395980       22.05430917926854
C            2.46482335659704      -35.55677334405834       20.70059872014955
H            1.78403511075061      -36.05072723584841       20.01430619784186
C            3.22535650779309      -34.45511293854989       20.04526657958380
C            3.84268113968360      -33.37123075057712       20.67471458926501
C            4.30397487961905      -33.40639307574962       21.99358695571935
H            4.91836071421843      -32.56817927699248       22.30169950441401
H            2.40341413080805      -37.69740075644259       15.73445493430961
H            3.90658478461610      -38.48942882266254       15.24483422331316
H            3.89827751521147      -36.77318224595674       15.69215812746737
H            1.84570541485713      -39.17366452385065       17.53494645856804
H            3.03404730210859      -39.68134919816752       18.72869638381260
H            3.17932198543372      -40.22669693149331       17.04240148957183
H            5.64354506809049      -40.21848836030716       16.91699269338718
H            5.21134146334118      -40.26778352015795       18.63729285532036
H            6.79718578537313      -39.68948537123885       18.14889254900009
H            6.21801973155199      -37.89753477028059       15.86967832553650
H            7.16472382910867      -37.48257848694871       17.30602010784143
H            5.84100347908239      -36.43640895618783       16.81056264600040
H            5.86890550589768      -36.32249229293933       21.12812969391893
H            2.16388965012673      -33.34878879548717       28.14652244093230
H            0.47652948561159      -33.77428677829499       28.46082829093170
H            0.89283937585850      -32.65180299555245       27.15179277446790
H            2.99275684229265      -35.57488306619329       27.81125996361721
H            2.14277355133338      -36.74264576851152       26.80725893926749
H            1.42335955459080      -36.19824096822435       28.34000697239639
H           -1.41237164581531      -33.75899377282849       26.85855197395327
H           -1.80029857208608      -34.32681941434829       25.22776016452694
H           -0.52620859915202      -33.13488558738138       25.44820472725134
H           -0.94060886297650      -36.21071000453252       27.62182000777415
H           -0.04419336094368      -37.26372707792006       26.50993036049892
H           -1.58452164447129      -36.57657492863272       26.01563295600473
H            0.91163016955373      -35.88323921571934       22.17043046246149
H            3.05552148193844      -34.36253449510357       18.97989804552902
H            4.27360907844791      -32.61549498189873       20.03029209124746

 Bond Distances (Angstroems)
 ---------------------------
C1-C2=1.5270         C1-H33=1.0872        C1-H34=1.0866        C1-H35=1.0852        C2-C1=1.5270         C2-O3=1.4280         
C2-C4=1.5337         C2-C5=1.5726         O3-C2=1.4280         O3-B9=1.3673         C4-C2=1.5337         C4-H36=1.0876        
C4-H37=1.0870        C4-H38=1.0858        C5-C2=1.5726         C5-C6=1.5267         C5-C7=1.5337         C5-O8=1.4285         
C6-C5=1.5267         C6-H39=1.0866        C6-H40=1.0850        C6-H41=1.0870        C7-C5=1.5337         C7-H42=1.0857        
C7-H43=1.0875        C7-H44=1.0871        O8-C5=1.4285         O8-B9=1.3638         B9-O3=1.3673         B9-O8=1.3638         
B9-C10=1.5661        C10-B9=1.5661        C10-C11=1.4080       C10-C27=1.5120       C10-C29=1.7232       C11-C10=1.4080       
C11-C12=1.3945       C11-H45=1.0819       C12-C11=1.3945       C12-H13=1.0840       C12-C14=1.4965       C12-C31=1.7230       
H13-C12=1.0840       C14-C12=1.4965       C14-H15=1.0858       C14-C16=1.4903       C14-C31=1.4931       H15-C14=1.0858       
C16-C14=1.4903       C16-B17=1.5589       C16-C26=1.3342       B17-C16=1.5589       B17-O18=1.3687       B17-O25=1.3670       
O18-B17=1.3687       O18-C19=1.4270       C19-O18=1.4270       C19-C20=1.5269       C19-C21=1.5342       C19-C22=1.5718       
C20-C19=1.5269       C20-H46=1.0872       C20-H47=1.0867       C20-H48=1.0851       C21-C19=1.5342       C21-H49=1.0877       
C21-H50=1.0871       C21-H51=1.0859       C22-C19=1.5718       C22-C23=1.5340       C22-C24=1.5270       C22-O25=1.4268       
C23-C22=1.5340       C23-H52=1.0859       C23-H53=1.0876       C23-H54=1.0871       C24-C22=1.5270       C24-H55=1.0866       
C24-H56=1.0851       C24-H57=1.0871       O25-B17=1.3670       O25-C22=1.4268       C26-C16=1.3342       C26-C27=1.4731       
C26-H58=1.0816       C27-C10=1.5120       C27-C26=1.4731       C27-H28=1.0856       C27-C29=1.4905       H28-C27=1.0856       
C29-C10=1.7232       C29-C27=1.4905       C29-C30=1.3972       C29-H59=1.0828       C30-C29=1.3972       C30-C31=1.3977       
C30-H60=1.0826       C31-C12=1.7230       C31-C14=1.4931       C31-C30=1.3977       C31-H32=1.0840       H32-C31=1.0840       
H33-C1=1.0872        H34-C1=1.0866        H35-C1=1.0852        H36-C4=1.0876        H37-C4=1.0870        H38-C4=1.0858        
H39-C6=1.0866        H40-C6=1.0850        H41-C6=1.0870        H42-C7=1.0857        H43-C7=1.0875        H44-C7=1.0871        
H45-C11=1.0819       H46-C20=1.0872       H47-C20=1.0867       H48-C20=1.0851       H49-C21=1.0877       H50-C21=1.0871       
H51-C21=1.0859       H52-C23=1.0859       H53-C23=1.0876       H54-C23=1.0871       H55-C24=1.0866       H56-C24=1.0851       
H57-C24=1.0871       H58-C26=1.0816       H59-C29=1.0828       H60-C30=1.0826       
 C  H  Rav=1.0858 sigma=0.0017  Rmin=1.0816  Rmax=1.0877    32
 C  B  Rav=1.5625 sigma=0.0036  Rmin=1.5589  Rmax=1.5661     2
 C  C  Rav=1.5096 sigma=0.0896  Rmin=1.3342  Rmax=1.7232    23
 O  B  Rav=1.3667 sigma=0.0018  Rmin=1.3638  Rmax=1.3687     4
 O  C  Rav=1.4276 sigma=0.0007  Rmin=1.4268  Rmax=1.4285     4

 selected bond angles (degree)
 --------------------
H33-C1-C2=108.93               H34-C1-C2=110.14               H34-C1-H33=108.86              H35-C1-C2=111.30               
H35-C1-H33=108.04              H35-C1-H34=109.51              O3-C2-C1=109.48                C4-C2-C1=109.06                
C4-C2-O3=106.88                C5-C2-C1=114.93                C5-C2-O3=103.06                C5-C2-C4=112.94                
B9-O3-C2=108.86                H36-C4-C2=108.53               H37-C4-C2=110.26               H37-C4-H36=107.99              
H38-C4-C2=111.16               H38-C4-H36=108.98              H38-C4-H37=109.85              C6-C5-C2=114.96                
C7-C5-C2=113.02                C7-C5-C6=109.14                O8-C5-C2=103.12                O8-C5-C6=109.35                
O8-C5-C7=106.74                H39-C6-C5=110.30               H40-C6-C5=111.16               H40-C6-H39=109.59              
H41-C6-C5=108.81               H41-C6-H39=108.92              H41-C6-H40=108.00              H42-C7-C5=111.24               
H43-C7-C5=108.41               H43-C7-H42=109.03              H44-C7-C5=110.30               H44-C7-H42=109.85              
H44-C7-H43=107.92              B9-O8-C5=108.90                O8-B9-O3=112.26                C10-B9-O3=123.64               
C10-B9-O8=124.10               C11-C10-B9=117.39              C27-C10-B9=116.25              C27-C10-C11=124.51             
C29-C10-B9=114.03              C29-C10-C11=112.19             C29-C10-C27= 54.39             

 selected dihedral angles (degree)
 ---------------------------------
O3-C2-C1-H33=294.56           O3-C2-C1-H34=175.23           O3-C2-C1-H35= 53.58           C4-C2-C1-H33= 51.18           
C4-C2-C1-H34=291.86           C4-C2-C1-H35=170.20           C5-C2-C1-H33=179.17           C5-C2-C1-H34= 59.84           
C5-C2-C1-H35=298.19           B9-O3-C2-C1=221.23            B9-O3-C2-C4=103.24            B9-O3-C2-C5=343.99            
H36-C4-C2-C1=299.82           H36-C4-C2-O3= 58.09           H36-C4-C2-C5=170.73           H37-C4-C2-C1=181.73           
H37-C4-C2-O3=299.99           H37-C4-C2-C5= 52.63           H38-C4-C2-C1= 59.66           H38-C4-C2-O3=177.92           
H38-C4-C2-C5=290.57           C6-C5-C2-C1=257.18            C6-C5-C2-O3=138.15            C6-C5-C2-C4= 23.19            
C7-C5-C2-C1= 23.39            C7-C5-C2-O3=264.35            C7-C5-C2-C4=149.39            O8-C5-C2-C1=138.25            
O8-C5-C2-O3= 19.21            O8-C5-C2-C4=264.25            H39-C6-C5-C2= 60.07           H39-C6-C5-C7=291.89           
H39-C6-C5-O8=175.47           H40-C6-C5-C2=298.30           H40-C6-C5-C7=170.12           H40-C6-C5-O8= 53.69           
H41-C6-C5-C2=179.49           H41-C6-C5-C7= 51.31           H41-C6-C5-O8=294.88           H42-C7-C5-C2=290.63           
H42-C7-C5-C6= 59.89           H42-C7-C5-O8=177.97           H43-C7-C5-C2=170.76           H43-C7-C5-C6=300.02           
H43-C7-C5-O8= 58.09           H44-C7-C5-C2= 52.79           H44-C7-C5-C6=182.05           H44-C7-C5-O8=300.13           
B9-O8-C5-C2=344.04            B9-O8-C5-C6=221.27            B9-O8-C5-C7=103.34            O8-B9-O3-C2=  6.90            
C10-B9-O3-C2=186.62           O3-B9-O8-C5=  6.79            C10-B9-O8-C5=187.07           C11-C10-B9-O3=181.95          
C11-C10-B9-O8=  1.63          C27-C10-B9-O3= 16.71          C27-C10-B9-O8=196.40          C29-C10-B9-O3=316.11          
C29-C10-B9-O8=135.80          
           -------------------------------------------------
          |                Final Singlepoint                |
           -------------------------------------------------

          ...................................................
          :                      SETUP                      :
          :.................................................:
          :  # basis functions                 144          :
          :  # atomic orbitals                 144          :
          :  # shells                           88          :
          :  # electrons                       150          :
          :  max. iterations                   250          :
          :  Hamiltonian                  GFN2-xTB          :
          :  restarted?                      false          :
          :  GBSA solvation                  false          :
          :  PC potential                    false          :
          :  electronic temp.          300.0000000     K    :
          :  accuracy                    1.0000000          :
          :  -> integral cutoff          0.2500000E+02      :
          :  -> integral neglect         0.1000000E-07      :
          :  -> SCF convergence          0.1000000E-05 Eh   :
          :  -> wf. convergence          0.1000000E-03 e    :
          :  Broyden damping             0.4000000          :
          ...................................................

 iter      E             dE          RMSdq      gap      omega  full diag
   1    -83.3715635 -0.833716E+02  0.252E-05    2.62       0.0  T
   2    -83.3715635 -0.366640E-11  0.158E-05    2.62     817.9  T
   3    -83.3715635 -0.852651E-13  0.991E-06    2.62    1302.7  T

   *** convergence criteria satisfied after 3 iterations ***

         #    Occupation            Energy/Eh            Energy/eV
      -------------------------------------------------------------
         1        2.0000           -0.6922893             -18.8382
       ...           ...                  ...                  ...
        69        2.0000           -0.4082508             -11.1091
        70        2.0000           -0.4008380             -10.9074
        71        2.0000           -0.3980166             -10.8306
        72        2.0000           -0.3955154             -10.7625
        73        2.0000           -0.3787963             -10.3076
        74        2.0000           -0.3717742             -10.1165
        75        2.0000           -0.3206529              -8.7254 (HOMO)
        76                         -0.2243176              -6.1040 (LUMO)
        77                         -0.2137759              -5.8171
        78                         -0.1559565              -4.2438
        79                         -0.1045515              -2.8450
        80                         -0.0761384              -2.0718
       ...                                ...                  ...
       144                          0.6974483              18.9785
      -------------------------------------------------------------
                  HL-Gap            0.0963352 Eh            2.6214 eV
             Fermi-level           -0.2724852 Eh           -7.4147 eV

 SCC (total)                   0 d,  0 h,  0 min,  0.043 sec
 SCC setup                      ...        0 min,  0.000 sec (  0.522%)
 Dispersion                     ...        0 min,  0.000 sec (  0.867%)
 classical contributions        ...        0 min,  0.000 sec (  0.404%)
 integral evaluation            ...        0 min,  0.006 sec ( 13.916%)
 iterations                     ...        0 min,  0.008 sec ( 19.368%)
 molecular gradient             ...        0 min,  0.028 sec ( 64.125%)
 printout                       ...        0 min,  0.000 sec (  0.785%)

         :::::::::::::::::::::::::::::::::::::::::::::::::::::
         ::                     SUMMARY                     ::
         :::::::::::::::::::::::::::::::::::::::::::::::::::::
         :: total energy             -82.298258990822 Eh    ::
         :: gradient norm              0.000953122559 Eh/a0 ::
         :: HOMO-LUMO gap              2.621415085466 eV    ::
         ::.................................................::
         :: SCC energy               -83.371563518288 Eh    ::
         :: -> isotropic ES            0.148396987446 Eh    ::
         :: -> anisotropic ES          0.010920167311 Eh    ::
         :: -> anisotropic XC          0.025750536879 Eh    ::
         :: -> dispersion             -0.060952199286 Eh    ::
         :: repulsion energy           1.072664911705 Eh    ::
         :: add. restraining           0.000011780977 Eh    ::
         :: total charge              -0.000000000000 e     ::
         :::::::::::::::::::::::::::::::::::::::::::::::::::::

           -------------------------------------------------
          |                Property Printout                |
           -------------------------------------------------

    * Orbital Energies and Occupations

         #    Occupation            Energy/Eh            Energy/eV
      -------------------------------------------------------------
         1        2.0000           -0.6922893             -18.8382
       ...           ...                  ...                  ...
        63        2.0000           -0.4370616             -11.8931
        64        2.0000           -0.4357248             -11.8567
        65        2.0000           -0.4301357             -11.7046
        66        2.0000           -0.4231208             -11.5137
        67        2.0000           -0.4188576             -11.3977
        68        2.0000           -0.4137100             -11.2576
        69        2.0000           -0.4082508             -11.1091
        70        2.0000           -0.4008380             -10.9074
        71        2.0000           -0.3980166             -10.8306
        72        2.0000           -0.3955154             -10.7625
        73        2.0000           -0.3787963             -10.3076
        74        2.0000           -0.3717742             -10.1165
        75        2.0000           -0.3206529              -8.7254 (HOMO)
        76                         -0.2243176              -6.1040 (LUMO)
        77                         -0.2137759              -5.8171
        78                         -0.1559565              -4.2438
        79                         -0.1045515              -2.8450
        80                         -0.0761384              -2.0718
        81                         -0.0062223              -0.1693
        82                          0.0036847               0.1003
        83                          0.0106308               0.2893
        84                          0.0252836               0.6880
        85                          0.0300470               0.8176
        86                          0.0545858               1.4854
       ...                                ...                  ...
       144                          0.6974483              18.9785
      -------------------------------------------------------------
                  HL-Gap            0.0963352 Eh            2.6214 eV
             Fermi-level           -0.2724852 Eh           -7.4147 eV

     #   Z          covCN         q      C6AA      α(0)
     1   6 C        3.755    -0.117    22.800     6.808
     2   6 C        3.858     0.129    18.447     6.108
     3   8 O        1.638    -0.375    20.386     6.095
     4   6 C        3.755    -0.117    22.787     6.806
     5   6 C        3.860     0.129    18.452     6.109
     6   6 C        3.755    -0.118    22.817     6.811
     7   6 C        3.755    -0.116    22.780     6.805
     8   8 O        1.638    -0.370    20.289     6.080
     9   5 B        2.658     0.439    15.483     6.626
    10   6 C        3.774    -0.058    21.640     6.628
    11   6 C        2.892    -0.066    29.645     8.927
    12   6 C        3.800    -0.008    20.726     6.482
    13   1 H        0.925     0.029     2.603     2.523
    14   6 C        3.865    -0.020    20.890     6.500
    15   1 H        0.925     0.043     2.412     2.428
    16   6 C        2.863    -0.084    30.100     8.993
    17   5 B        2.663     0.432    15.553     6.637
    18   8 O        1.638    -0.373    20.340     6.088
    19   6 C        3.860     0.129    18.453     6.109
    20   6 C        3.755    -0.117    22.797     6.808
    21   6 C        3.755    -0.116    22.777     6.805
    22   6 C        3.860     0.129    18.453     6.109
    23   6 C        3.755    -0.116    22.783     6.806
    24   6 C        3.755    -0.117    22.804     6.809
    25   8 O        1.638    -0.371    20.313     6.084
    26   6 C        2.896    -0.026    28.658     8.777
    27   6 C        3.863    -0.018    20.852     6.494
    28   1 H        0.925     0.042     2.429     2.437
    29   6 C        3.803    -0.005    20.675     6.474
    30   6 C        2.888    -0.072    29.787     8.948
    31   6 C        3.802    -0.006    20.690     6.476
    32   1 H        0.925     0.029     2.603     2.523
    33   1 H        0.925     0.055     2.259     2.350
    34   1 H        0.925     0.040     2.443     2.444
    35   1 H        0.925     0.052     2.298     2.371
    36   1 H        0.925     0.053     2.285     2.364
    37   1 H        0.925     0.044     2.392     2.419
    38   1 H        0.925     0.043     2.406     2.426
    39   1 H        0.925     0.041     2.437     2.441
    40   1 H        0.925     0.053     2.284     2.363
    41   1 H        0.925     0.056     2.252     2.347
    42   1 H        0.925     0.043     2.403     2.424
    43   1 H        0.925     0.053     2.279     2.361
    44   1 H        0.925     0.044     2.402     2.424
    45   1 H        0.925     0.028     2.617     2.530
    46   1 H        0.925     0.054     2.272     2.357
    47   1 H        0.925     0.039     2.456     2.451
    48   1 H        0.925     0.052     2.295     2.369
    49   1 H        0.925     0.052     2.298     2.370
    50   1 H        0.925     0.044     2.399     2.422
    51   1 H        0.925     0.042     2.421     2.433
    52   1 H        0.925     0.042     2.417     2.431
    53   1 H        0.925     0.052     2.292     2.367
    54   1 H        0.925     0.044     2.397     2.421
    55   1 H        0.925     0.040     2.454     2.450
    56   1 H        0.925     0.052     2.295     2.369
    57   1 H        0.925     0.054     2.267     2.355
    58   1 H        0.925     0.038     2.477     2.461
    59   1 H        0.925     0.033     2.545     2.495
    60   1 H        0.925     0.016     2.796     2.615

 Mol. C6AA /au·bohr⁶  :      32264.845422
 Mol. C8AA /au·bohr⁸  :     745515.611317
 Mol. α(0) /au        :        268.743451


Wiberg/Mayer (AO) data.
largest (>0.10) Wiberg bond orders for each atom

 ---------------------------------------------------------------------------
     #   Z sym  total        # sym  WBO       # sym  WBO       # sym  WBO
 ---------------------------------------------------------------------------
     1   6 C    3.994 --     2 C    0.997    34 H    0.984    33 H    0.982
                            35 H    0.982
     2   6 C    3.942 --     1 C    0.997     4 C    0.991     3 O    0.951
                             5 C    0.937
     3   8 O    2.229 --     9 B    1.129     2 C    0.951
     4   6 C    3.994 --     2 C    0.991    38 H    0.984    37 H    0.984
                            36 H    0.983
     5   6 C    3.941 --     6 C    0.997     7 C    0.991     8 O    0.950
                             2 C    0.937
     6   6 C    3.994 --     5 C    0.997    39 H    0.984    41 H    0.982
                            40 H    0.982
     7   6 C    3.995 --     5 C    0.991    42 H    0.984    44 H    0.984
                            43 H    0.983
     8   8 O    2.239 --     9 B    1.139     5 C    0.950
     9   5 B    3.377 --     8 O    1.139     3 O    1.129    10 C    0.994
    10   6 C    3.937 --    11 C    1.331     9 B    0.994    27 C    0.889
                            29 C    0.543
    11   6 C    3.977 --    12 C    1.379    10 C    1.331    45 H    0.964
                            30 C    0.185
    12   6 C    3.957 --    11 C    1.379    13 H    0.972    14 C    0.923
                            31 C    0.551
    13   1 H    0.999 --    12 C    0.972
    14   6 C    3.961 --    16 C    1.011    15 H    0.968    31 C    0.933
                            12 C    0.923
    15   1 H    0.998 --    14 C    0.968
    16   6 C    3.978 --    26 C    1.824    14 C    1.011    17 B    1.001
    17   5 B    3.376 --    25 O    1.129    18 O    1.126    16 C    1.001
    18   8 O    2.231 --    17 B    1.126    19 C    0.953
    19   6 C    3.943 --    20 C    0.997    21 C    0.991    18 O    0.953
                            22 C    0.937
    20   6 C    3.994 --    19 C    0.997    47 H    0.985    46 H    0.983
                            48 H    0.982
    21   6 C    3.994 --    19 C    0.991    51 H    0.984    50 H    0.984
                            49 H    0.983
    22   6 C    3.943 --    24 C    0.996    23 C    0.990    25 O    0.953
                            19 C    0.937
    23   6 C    3.995 --    22 C    0.990    52 H    0.985    54 H    0.984
                            53 H    0.983
    24   6 C    3.994 --    22 C    0.996    55 H    0.985    57 H    0.983
                            56 H    0.982
    25   8 O    2.233 --    17 B    1.129    22 C    0.953
    26   6 C    3.989 --    16 C    1.824    27 C    1.040    58 H    0.966
    27   6 C    3.962 --    26 C    1.040    28 H    0.969    29 C    0.929
                            10 C    0.889
    28   1 H    0.998 --    27 C    0.969
    29   6 C    3.954 --    30 C    1.359    59 H    0.971    27 C    0.929
                            10 C    0.543
    30   6 C    3.968 --    31 C    1.361    29 C    1.359    60 H    0.966
                            11 C    0.185
    31   6 C    3.953 --    30 C    1.361    32 H    0.972    14 C    0.933
                            12 C    0.551
    32   1 H    0.999 --    31 C    0.972
    33   1 H    0.997 --     1 C    0.982
    34   1 H    0.998 --     1 C    0.984
    35   1 H    0.997 --     1 C    0.982
    36   1 H    0.997 --     4 C    0.983
    37   1 H    0.998 --     4 C    0.984
    38   1 H    0.998 --     4 C    0.984
    39   1 H    0.998 --     6 C    0.984
    40   1 H    0.997 --     6 C    0.982
    41   1 H    0.997 --     6 C    0.982
    42   1 H    0.998 --     7 C    0.984
    43   1 H    0.997 --     7 C    0.983
    44   1 H    0.998 --     7 C    0.984
    45   1 H    0.999 --    11 C    0.964
    46   1 H    0.997 --    20 C    0.983
    47   1 H    0.998 --    20 C    0.985
    48   1 H    0.997 --    20 C    0.982
    49   1 H    0.997 --    21 C    0.983
    50   1 H    0.998 --    21 C    0.984
    51   1 H    0.998 --    21 C    0.984
    52   1 H    0.998 --    23 C    0.985
    53   1 H    0.997 --    23 C    0.983
    54   1 H    0.998 --    23 C    0.984
    55   1 H    0.998 --    24 C    0.985
    56   1 H    0.997 --    24 C    0.982
    57   1 H    0.997 --    24 C    0.983
    58   1 H    0.998 --    26 C    0.966
    59   1 H    0.998 --    29 C    0.971
    60   1 H    0.999 --    30 C    0.966
 ---------------------------------------------------------------------------

Topologies differ in total number of bonds
Writing topology from bond orders to xtbtopo.mol

molecular dipole:
                 x           y           z       tot (Debye)
 q only:       -0.230      -0.538      -0.029
   full:       -0.112      -0.603      -0.102       1.580
molecular quadrupole (traceless):
                xx          xy          yy          xz          yz          zz
 q only:      -47.310      15.924      67.828     -27.204     -19.389     -20.518
  q+dip:      -47.230       6.007      75.595     -20.693     -13.808     -28.365
   full:      -48.038       4.779      77.340     -21.833     -15.110     -29.302

           -------------------------------------------------
          |                Geometry Summary                 |
           -------------------------------------------------

      molecular mass/u    :      382.1099696
   center of mass at/Å    :        2.9427523     -35.9369316      21.8356058
  moments of inertia/u·Å² :        0.1184654E+04   0.6834632E+04   0.7161354E+04
rotational constants/cm⁻¹ :        0.1423000E-01   0.2466502E-02   0.2353973E-02

 * 60 selected distances

     #   Z          #   Z                                           value/Å
     1   6 C        2   6 C                                       1.5270330
     2   6 C        3   8 O                                       1.4279544
     2   6 C        4   6 C                                       1.5337464
     5   6 C        6   6 C                                       1.5267007
     5   6 C        7   6 C                                       1.5336693
     5   6 C        8   8 O                                       1.4285308
     3   8 O        9   5 B                                       1.3673447
     8   8 O        9   5 B                                       1.3637624
     9   5 B       10   6 C                                       1.5660983 (max)
    10   6 C       11   6 C                                       1.4080034
    11   6 C       12   6 C                                       1.3944616
    12   6 C       13   1 H                                       1.0839700
    12   6 C       14   6 C                                       1.4964587
    14   6 C       15   1 H                                       1.0857876
    16   6 C       17   5 B                                       1.5589412
    17   5 B       18   8 O                                       1.3686911
    18   8 O       19   6 C                                       1.4269531
    19   6 C       20   6 C                                       1.5269356
    19   6 C       21   6 C                                       1.5341725
    22   6 C       23   6 C                                       1.5339902
    22   6 C       24   6 C                                       1.5269753
    17   5 B       25   8 O                                       1.3669862
    22   6 C       25   8 O                                       1.4268145
    16   6 C       26   6 C                                       1.3342194
    10   6 C       27   6 C                                       1.5119605
    26   6 C       27   6 C                                       1.4731051
    27   6 C       28   1 H                                       1.0855693
    27   6 C       29   6 C                                       1.4904788
    29   6 C       30   6 C                                       1.3971741
    14   6 C       31   6 C                                       1.4931489
    30   6 C       31   6 C                                       1.3976598
    31   6 C       32   1 H                                       1.0839769
     1   6 C       33   1 H                                       1.0872339
     1   6 C       34   1 H                                       1.0865602
     1   6 C       35   1 H                                       1.0851935
     4   6 C       36   1 H                                       1.0876425
     4   6 C       37   1 H                                       1.0870480
     4   6 C       38   1 H                                       1.0858037
     6   6 C       39   1 H                                       1.0865950
     6   6 C       40   1 H                                       1.0850300
     6   6 C       41   1 H                                       1.0870440
     7   6 C       42   1 H                                       1.0857143
     7   6 C       43   1 H                                       1.0875474
     7   6 C       44   1 H                                       1.0871297
    11   6 C       45   1 H                                       1.0819368
    20   6 C       46   1 H                                       1.0872329
    20   6 C       47   1 H                                       1.0867029
    20   6 C       48   1 H                                       1.0851263
    21   6 C       49   1 H                                       1.0876553
    21   6 C       50   1 H                                       1.0871267
    21   6 C       51   1 H                                       1.0858619
    23   6 C       52   1 H                                       1.0858675
    23   6 C       53   1 H                                       1.0875612
    23   6 C       54   1 H                                       1.0870857
    24   6 C       55   1 H                                       1.0866207
    24   6 C       56   1 H                                       1.0851086
    24   6 C       57   1 H                                       1.0871319
    26   6 C       58   1 H                                       1.0816464 (min)
    29   6 C       59   1 H                                       1.0827858
    30   6 C       60   1 H                                       1.0826431

 * 5 distinct bonds (by element types)

   Z      Z             #   av. dist./Å        max./Å        min./Å
   1 H    6 C          32     1.0858106     1.0876553     1.0816464
   5 B    6 C           2     1.5625197     1.5660983     1.5589412
   6 C    6 C          18     1.4799941     1.5341725     1.3342194
   5 B    8 O           4     1.3666961     1.3686911     1.3637624
   6 C    8 O           4     1.4275632     1.4285308     1.4268145


optimized geometry written to: xtbopt.xyz


           -------------------------------------------------
          | TOTAL ENERGY              -82.298258990822 Eh   |
          | GRADIENT NORM               0.000953122559 Eh/α |
          | HOMO-LUMO GAP               2.621415085466 eV   |
           -------------------------------------------------

------------------------------------------------------------------------
 * finished run on 2022/07/09 at 18:33:23.885     
------------------------------------------------------------------------
 total:
 * wall-time:     0 d,  0 h,  0 min,  1.180 sec
 *  cpu-time:     0 d,  0 h,  0 min,  1.179 sec
 * ratio c/w:     0.999 speedup
 SCF:
 * wall-time:     0 d,  0 h,  0 min,  0.068 sec
 *  cpu-time:     0 d,  0 h,  0 min,  0.068 sec
 * ratio c/w:     1.000 speedup
 ANC optimizer:
 * wall-time:     0 d,  0 h,  0 min,  1.100 sec
 *  cpu-time:     0 d,  0 h,  0 min,  1.099 sec
 * ratio c/w:     0.999 speedup

