      -----------------------------------------------------------      
     |                   =====================                   |     
     |                           x T B                           |     
     |                   =====================                   |     
     |                         S. Grimme                         |     
     |          Mulliken Center for Theoretical Chemistry        |     
     |                    University of Bonn                     |     
      -----------------------------------------------------------      

   * xtb version 6.5.0 (homebrew) compiled by 'nhattrup@GPGGRP-SHANNON.CHEME.CMU.EDU' on 

   xtb is free software: you can redistribute it and/or modify it under
   the terms of the GNU Lesser General Public License as published by
   the Free Software Foundation, either version 3 of the License, or
   (at your option) any later version.
   
   xtb is distributed in the hope that it will be useful,
   but WITHOUT ANY WARRANTY; without even the implied warranty of
   MERCHANTABILITY or FITNESS FOR A PARTICULAR PURPOSE.  See the
   GNU Lesser General Public License for more details.
   
   Cite this work as:
   * C. Bannwarth, E. Caldeweyher, S. Ehlert, A. Hansen, P. Pracht,
     J. Seibert, S. Spicher, S. Grimme, WIREs Comput. Mol. Sci., 2020, 11,
     e01493. DOI: 10.1002/wcms.1493
   
   for GFN2-xTB:
   * C. Bannwarth, S. Ehlert and S. Grimme., J. Chem. Theory Comput., 2019,
     15, 1652-1671. DOI: 10.1021/acs.jctc.8b01176
   for GFN1-xTB:
   * S. Grimme, C. Bannwarth, P. Shushkov, J. Chem. Theory Comput., 2017,
     13, 1989-2009. DOI: 10.1021/acs.jctc.7b00118
   for GFN0-xTB:
   * P. Pracht, E. Caldeweyher, S. Ehlert, S. Grimme, ChemRxiv, 2019, preprint.
     DOI: 10.26434/chemrxiv.8326202.v1
   for GFN-FF:
   * S. Spicher and S. Grimme, Angew. Chem. Int. Ed., 2020, 59, 15665-15673.
     DOI: 10.1002/anie.202004239
   
   for ALPB and GBSA implicit solvation:
   * S. Ehlert, M. Stahn, S. Spicher, S. Grimme, J. Chem. Theory Comput.,
     2021, 17, 4250-4261. DOI: 10.1021/acs.jctc.1c00471
   
   for DFT-D4:
   * E. Caldeweyher, C. Bannwarth and S. Grimme, J. Chem. Phys., 2017,
     147, 034112. DOI: 10.1063/1.4993215
   * E. Caldeweyher, S. Ehlert, A. Hansen, H. Neugebauer, S. Spicher,
     C. Bannwarth and S. Grimme, J. Chem. Phys., 2019, 150, 154122.
     DOI: 10.1063/1.5090222
   * E. Caldeweyher, J.-M. Mewes, S. Ehlert and S. Grimme, Phys. Chem. Chem. Phys.
     2020, 22, 8499-8512. DOI: 10.1039/D0CP00502A
   
   for sTDA-xTB:
   * S. Grimme and C. Bannwarth, J. Chem. Phys., 2016, 145, 054103.
     DOI: 10.1063/1.4959605
   
   in the mass-spec context:
   * V. Asgeirsson, C. Bauer and S. Grimme, Chem. Sci., 2017, 8, 4879.
     DOI: 10.1039/c7sc00601b
   * J. Koopman and S. Grimme, ACS Omega 2019, 4, 12, 15120-15133.
     DOI: 10.1021/acsomega.9b02011
   
   for metadynamics refer to:
   * S. Grimme, J. Chem. Theory Comput., 2019, 155, 2847-2862
     DOI: 10.1021/acs.jctc.9b00143
   
   for SPH calculations refer to:
   * S. Spicher and S. Grimme, J. Chem. Theory Comput., 2021, 17, 1701-1714
     DOI: 10.1021/acs.jctc.0c01306
   
   with help from (in alphabetical order)
   P. Atkinson, C. Bannwarth, F. Bohle, G. Brandenburg, E. Caldeweyher
   M. Checinski, S. Dohm, S. Ehlert, S. Ehrlich, I. Gerasimov, C. Hölzer
   A. Katbashev, J. Koopman, C. Lavigne, S. Lehtola, F. März, M. Müller,
   F. Musil, H. Neugebauer, J. Pisarek, C. Plett, P. Pracht, F. Pultar,
   J. Seibert, P. Shushkov, S. Spicher, M. Stahn, M. Steiner, T. Strunk,
   J. Stückrath, T. Rose, and J. Unsleber
   
 * started run on 2022/07/09 at 18:33:35.628     

           -------------------------------------------------
          |                Calculation Setup                |
           -------------------------------------------------

          program call               : /opt/homebrew/bin/xtb bvl_bpin2_scan_8-5_xtb.xyz --chrg 0 --uhf 0 --opt --input xcontrol_bvl_bpin2_scan_8-5_xtb
          coordinate file            : bvl_bpin2_scan_8-5_xtb.xyz
          omp threads                :                     1

   ID    Z sym.   atoms
    1    6 C      1, 2, 4-7, 10-12, 14, 16, 19-24, 26, 27, 29-31
    2    8 O      3, 8, 18, 25
    3    5 B      9, 17
    4    1 H      13, 15, 28, 32-60
constraining bond 12 31 to    2.3889000 Å, actual value:    2.2764715 Å
constraining bond 10 29 to    1.9444000 Å, actual value:    2.0520538 Å

           -------------------------------------------------
          |                 G F N 2 - x T B                 |
           -------------------------------------------------

        Reference                      10.1021/acs.jctc.8b01176
      * Hamiltonian:
        H0-scaling (s, p, d)           1.850000    2.230000    2.230000
        zeta-weighting                 0.500000
      * Dispersion:
        s8                             2.700000
        a1                             0.520000
        a2                             5.000000
        s9                             5.000000
      * Repulsion:
        kExp                           1.500000    1.000000
        rExp                           1.000000
      * Coulomb:
        alpha                          2.000000
        third order                    shell-resolved
        anisotropic                    true
        a3                             3.000000
        a5                             4.000000
        cn-shift                       1.200000
        cn-exp                         4.000000
        max-rad                        5.000000


          ...................................................
          :                      SETUP                      :
          :.................................................:
          :  # basis functions                 144          :
          :  # atomic orbitals                 144          :
          :  # shells                           88          :
          :  # electrons                       150          :
          :  max. iterations                   250          :
          :  Hamiltonian                  GFN2-xTB          :
          :  restarted?                      false          :
          :  GBSA solvation                  false          :
          :  PC potential                    false          :
          :  electronic temp.          300.0000000     K    :
          :  accuracy                    1.0000000          :
          :  -> integral cutoff          0.2500000E+02      :
          :  -> integral neglect         0.1000000E-07      :
          :  -> SCF convergence          0.1000000E-05 Eh   :
          :  -> wf. convergence          0.1000000E-03 e    :
          :  Broyden damping             0.4000000          :
          ...................................................

 iter      E             dE          RMSdq      gap      omega  full diag
   1    -82.9360804 -0.829361E+02  0.474E+00    2.30       0.0  T
   2    -83.3130666 -0.376986E+00  0.292E+00    2.16       1.0  T
   3    -83.3133576 -0.290992E-03  0.154E+00    2.36       1.0  T
   4    -83.3125823  0.775329E-03  0.933E-01    2.33       1.0  T
   5    -83.3649555 -0.523732E-01  0.280E-01    2.27       1.0  T
   6    -83.3690486 -0.409312E-02  0.115E-01    2.27       1.0  T
   7    -83.3690511 -0.247039E-05  0.473E-02    2.27       1.0  T
   8    -83.3691371 -0.860018E-04  0.192E-02    2.27       1.0  T
   9    -83.3691537 -0.166289E-04  0.707E-03    2.27       1.8  T
  10    -83.3691552 -0.151990E-05  0.340E-03    2.27       3.8  T
  11    -83.3691554 -0.146214E-06  0.152E-03    2.27       8.5  T
  12    -83.3691555 -0.928254E-07  0.387E-04    2.27      33.3  T
  13    -83.3691555 -0.199145E-08  0.233E-04    2.27      55.3  T

   *** convergence criteria satisfied after 13 iterations ***

         #    Occupation            Energy/Eh            Energy/eV
      -------------------------------------------------------------
         1        2.0000           -0.6884301             -18.7331
       ...           ...                  ...                  ...
        69        2.0000           -0.4021057             -10.9419
        70        2.0000           -0.3975439             -10.8177
        71        2.0000           -0.3964996             -10.7893
        72        2.0000           -0.3931647             -10.6986
        73        2.0000           -0.3913481             -10.6491
        74        2.0000           -0.3606195              -9.8130
        75        2.0000           -0.3353834              -9.1262 (HOMO)
        76                         -0.2521087              -6.8602 (LUMO)
        77                         -0.2187618              -5.9528
        78                         -0.1848815              -5.0309
        79                         -0.1406502              -3.8273
        80                         -0.0961722              -2.6170
       ...                                ...                  ...
       144                          0.6812701              18.5383
      -------------------------------------------------------------
                  HL-Gap            0.0832748 Eh            2.2660 eV
             Fermi-level           -0.2937460 Eh           -7.9932 eV

 SCC (total)                   0 d,  0 h,  0 min,  0.071 sec
 SCC setup                      ...        0 min,  0.000 sec (  0.373%)
 Dispersion                     ...        0 min,  0.000 sec (  0.615%)
 classical contributions        ...        0 min,  0.000 sec (  0.249%)
 integral evaluation            ...        0 min,  0.006 sec (  8.766%)
 iterations                     ...        0 min,  0.036 sec ( 50.695%)
 molecular gradient             ...        0 min,  0.028 sec ( 38.796%)
 printout                       ...        0 min,  0.000 sec (  0.498%)

         :::::::::::::::::::::::::::::::::::::::::::::::::::::
         ::                     SUMMARY                     ::
         :::::::::::::::::::::::::::::::::::::::::::::::::::::
         :: total energy             -82.118854428086 Eh    ::
         :: gradient norm              1.680615647504 Eh/a0 ::
         :: HOMO-LUMO gap              2.266022025906 eV    ::
         ::.................................................::
         :: SCC energy               -83.369155460563 Eh    ::
         :: -> isotropic ES            0.147961082165 Eh    ::
         :: -> anisotropic ES          0.011921800820 Eh    ::
         :: -> anisotropic XC          0.027284658528 Eh    ::
         :: -> dispersion             -0.062718230161 Eh    ::
         :: repulsion energy           1.076549471682 Eh    ::
         :: add. restraining           0.173050333244 Eh    ::
         :: total charge              -0.000000000000 e     ::
         :::::::::::::::::::::::::::::::::::::::::::::::::::::

      ----------------------------------------------------------- 
     |                   =====================                   |
     |                        A N C O P T                        |
     |                   =====================                   |
     |               Approximate Normal Coordinate               |
     |                Rational Function Optimizer                |
      ----------------------------------------------------------- 

          ...................................................
          :                      SETUP                      :
          :.................................................:
          :   optimization level            normal          :
          :   max. optcycles                   200          :
          :   ANC micro-cycles                  20          :
          :   degrees of freedom               174          :
          :.................................................:
          :   RF solver                   davidson          :
          :   write xtbopt.log                true          :
          :   linear?                        false          :
          :   energy convergence         0.5000000E-05 Eh   :
          :   grad. convergence          0.1000000E-02 Eh/α :
          :   maximium RF displ.         1.0000000          :
          :   Hlow (freq-cutoff)         0.1000000E-01      :
          :   Hmax (freq-cutoff)         5.0000000          :
          :   S6 in model hess.         20.0000000          :
          ...................................................

generating ANC from model Hessian ...
Using Lindh-Hessian (1995)
 Shifting diagonal of input Hessian by   0.20189750675433471     
 Lowest  eigenvalues of input Hessian
    0.010000    0.152362    0.000000    0.000000    0.000000    0.000000
    0.000000    0.000000    0.202008    0.202037    0.202195    0.203524
    0.203818    0.204741    0.205199    0.205260    0.206428    0.207010
 Highest eigenvalues
    1.914284    2.093101    2.098209    2.163441    8.818906    8.876127


........................................................................
.............................. CYCLE    1 ..............................
........................................................................
   1    -83.3691555 -0.833692E+02  0.867E-05    2.27       0.0  T
   2    -83.3691555 -0.333074E-09  0.575E-05    2.27     224.6  T
   3    -83.3691555 -0.146116E-09  0.274E-05    2.27     471.5  T
     SCC iter.                  ...        0 min,  0.009 sec
     gradient                   ...        0 min,  0.028 sec
 * total energy  :   -82.1188544 Eh     change       -0.1508951E-08 Eh
   gradient norm :     1.6806180 Eh/α   predicted     0.0000000E+00 (-100.00%)
   displ. norm   :     0.3115884 α      lambda       -0.5169357E+00
   maximum displ.:     0.2997940 α      in ANC's #174, #173, #127, ...

........................................................................
.............................. CYCLE    2 ..............................
........................................................................
   1    -83.3676627 -0.833677E+02  0.317E-01    2.73       0.0  T
   2    -83.3675204  0.142326E-03  0.279E-01    2.72       1.0  T
   3    -83.3694273 -0.190691E-02  0.145E-01    2.72       1.0  T
   4    -83.3695698 -0.142562E-03  0.384E-02    2.72       1.0  T
   5    -83.3696448 -0.750016E-04  0.108E-02    2.72       1.2  T
   6    -83.3696502 -0.538549E-05  0.391E-03    2.72       3.3  T
   7    -83.3696504 -0.198499E-06  0.158E-03    2.72       8.2  T
   8    -83.3696504 -0.178309E-07  0.898E-04    2.72      14.4  T
   9    -83.3696505 -0.335782E-07  0.270E-04    2.72      47.8  T
     SCC iter.                  ...        0 min,  0.024 sec
     gradient                   ...        0 min,  0.028 sec
 * total energy  :   -82.2506726 Eh     change       -0.1318182E+00 Eh
   gradient norm :     0.8342801 Eh/α   predicted    -0.2836882E+00 ( 115.21%)
   displ. norm   :     0.1053651 α      lambda       -0.8427154E-01
   maximum displ.:     0.0981821 α      in ANC's #174, #173, #127, ...

........................................................................
.............................. CYCLE    3 ..............................
........................................................................
   1    -83.3692380 -0.833692E+02  0.111E-01    2.56       0.0  T
   2    -83.3692269  0.110648E-04  0.953E-02    2.57       1.0  T
   3    -83.3694596 -0.232724E-03  0.512E-02    2.56       1.0  T
   4    -83.3694838 -0.241748E-04  0.149E-02    2.56       1.0  T
   5    -83.3694946 -0.107967E-04  0.475E-03    2.57       2.7  T
   6    -83.3694958 -0.121870E-05  0.150E-03    2.57       8.6  T
   7    -83.3694958 -0.160645E-07  0.929E-04    2.57      13.9  T
   8    -83.3694959 -0.297891E-07  0.288E-04    2.57      44.9  T
     SCC iter.                  ...        0 min,  0.022 sec
     gradient                   ...        0 min,  0.028 sec
 * total energy  :   -82.2937735 Eh     change       -0.4310089E-01 Eh
   gradient norm :     0.0290666 Eh/α   predicted    -0.4260366E-01 (  -1.15%)
   displ. norm   :     0.0420879 α      lambda       -0.8351591E-03
   maximum displ.:     0.0157885 α      in ANC's #37, #36, #127, ...

........................................................................
.............................. CYCLE    4 ..............................
........................................................................
   1    -83.3688280 -0.833688E+02  0.279E-02    2.56       0.0  T
   2    -83.3688293 -0.134586E-05  0.176E-02    2.56       1.0  T
   3    -83.3688208  0.848811E-05  0.138E-02    2.56       1.0  T
   4    -83.3688321 -0.112318E-04  0.234E-03    2.56       5.5  T
   5    -83.3688323 -0.265871E-06  0.657E-04    2.56      19.6  T
   6    -83.3688323 -0.193575E-07  0.338E-04    2.56      38.2  T
     SCC iter.                  ...        0 min,  0.016 sec
     gradient                   ...        0 min,  0.028 sec
 * total energy  :   -82.2944467 Eh     change       -0.6732196E-03 Eh
   gradient norm :     0.0167439 Eh/α   predicted    -0.4212182E-03 ( -37.43%)
   displ. norm   :     0.1323023 α      lambda       -0.1341510E-02
   maximum displ.:     0.0709883 α      in ANC's #1, #36, #37, ...

........................................................................
.............................. CYCLE    5 ..............................
........................................................................
   1    -83.3670374 -0.833670E+02  0.816E-02    2.57       0.0  T
   2    -83.3670412 -0.381726E-05  0.493E-02    2.57       1.0  T
   3    -83.3669593  0.819121E-04  0.375E-02    2.57       1.0  T
   4    -83.3670536 -0.943344E-04  0.432E-03    2.57       3.0  T
   5    -83.3670545 -0.884505E-06  0.141E-03    2.57       9.2  T
   6    -83.3670546 -0.690312E-07  0.787E-04    2.57      16.4  T
   7    -83.3670546 -0.108854E-07  0.310E-04    2.57      41.6  T
     SCC iter.                  ...        0 min,  0.020 sec
     gradient                   ...        0 min,  0.028 sec
 * total energy  :   -82.2949657 Eh     change       -0.5189873E-03 Eh
   gradient norm :     0.0184125 Eh/α   predicted    -0.6828763E-03 (  31.58%)
   displ. norm   :     0.3485971 α      lambda       -0.2204766E-02
   maximum displ.:     0.2977356 α      in ANC's #1, #36, #37, ...

........................................................................
.............................. CYCLE    6 ..............................
........................................................................
   1    -83.3604748 -0.833605E+02  0.205E-01    2.54       0.0  T
   2    -83.3604873 -0.125126E-04  0.122E-01    2.55       1.0  T
   3    -83.3603801  0.107217E-03  0.390E-02    2.55       1.0  T
   4    -83.3604940 -0.113935E-03  0.739E-03    2.55       1.7  T
   5    -83.3604967 -0.266918E-05  0.253E-03    2.55       5.1  T
   6    -83.3604967 -0.298923E-07  0.175E-03    2.55       7.4  T
   7    -83.3604968 -0.101778E-06  0.423E-04    2.55      30.5  T
   8    -83.3604968 -0.441025E-08  0.205E-04    2.55      63.1  T
     SCC iter.                  ...        0 min,  0.024 sec
     gradient                   ...        0 min,  0.028 sec
 * total energy  :   -82.2921971 Eh     change        0.2768614E-02 Eh
   gradient norm :     0.0522183 Eh/α   predicted    -0.1236505E-02 (-144.66%)
   displ. norm   :     0.2372422 α      lambda       -0.6291331E-02
   maximum displ.:     0.2091786 α      in ANC's #1, #37, #36, ...

........................................................................
.............................. CYCLE    7 ..............................
........................................................................
   1    -83.3680200 -0.833680E+02  0.143E-01    2.57       0.0  T
   2    -83.3680285 -0.853819E-05  0.850E-02    2.56       1.0  T
   3    -83.3679745  0.540388E-04  0.274E-02    2.57       1.0  T
   4    -83.3680323 -0.577875E-04  0.570E-03    2.56       2.3  T
   5    -83.3680339 -0.157736E-05  0.169E-03    2.56       7.6  T
   6    -83.3680338  0.178745E-07  0.116E-03    2.56      11.2  T
   7    -83.3680339 -0.496435E-07  0.348E-04    2.56      37.1  T
   8    -83.3680339 -0.412467E-08  0.149E-04    2.56      86.4  T
     SCC iter.                  ...        0 min,  0.026 sec
     gradient                   ...        0 min,  0.028 sec
 * total energy  :   -82.2954817 Eh     change       -0.3284639E-02 Eh
   gradient norm :     0.0190715 Eh/α   predicted    -0.3321728E-02 (   1.13%)
   displ. norm   :     0.0327079 α      lambda       -0.2445787E-03
   maximum displ.:     0.0185371 α      in ANC's #1, #36, #37, ...

........................................................................
.............................. CYCLE    8 ..............................
........................................................................
   1    -83.3687026 -0.833687E+02  0.179E-02    2.56       0.0  T
   2    -83.3687028 -0.231514E-06  0.110E-02    2.56       1.2  T
   3    -83.3687000  0.275449E-05  0.659E-03    2.56       2.0  T
   4    -83.3687031 -0.306285E-05  0.877E-04    2.56      14.7  T
   5    -83.3687031 -0.352688E-07  0.280E-04    2.56      46.0  T
   6    -83.3687031 -0.193347E-08  0.174E-04    2.56      74.1  T
     SCC iter.                  ...        0 min,  0.016 sec
     gradient                   ...        0 min,  0.027 sec
 * total energy  :   -82.2956692 Eh     change       -0.1875072E-03 Eh
   gradient norm :     0.0122476 Eh/α   predicted    -0.1224812E-03 ( -34.68%)
   displ. norm   :     0.1046779 α      lambda       -0.4762082E-03
   maximum displ.:     0.0487122 α      in ANC's #36, #37, #28, ...

........................................................................
.............................. CYCLE    9 ..............................
........................................................................
   1    -83.3699856 -0.833700E+02  0.517E-02    2.55       0.0  T
   2    -83.3699865 -0.895630E-06  0.306E-02    2.55       1.0  T
   3    -83.3699792  0.728296E-05  0.112E-02    2.55       1.2  T
   4    -83.3699870 -0.775855E-05  0.185E-03    2.55       7.0  T
   5    -83.3699872 -0.187539E-06  0.533E-04    2.55      24.2  T
   6    -83.3699872  0.182915E-08  0.378E-04    2.55      34.2  T
     SCC iter.                  ...        0 min,  0.016 sec
     gradient                   ...        0 min,  0.028 sec
 * total energy  :   -82.2960011 Eh     change       -0.3318230E-03 Eh
   gradient norm :     0.0114632 Eh/α   predicted    -0.2411815E-03 ( -27.32%)
   displ. norm   :     0.1143021 α      lambda       -0.2924181E-03
   maximum displ.:     0.0527351 α      in ANC's #36, #37, #28, ...

........................................................................
.............................. CYCLE   10 ..............................
........................................................................
   1    -83.3708215 -0.833708E+02  0.551E-02    2.54       0.0  T
   2    -83.3708218 -0.311618E-06  0.324E-02    2.54       1.0  T
   3    -83.3708089  0.129777E-04  0.147E-02    2.54       1.0  T
   4    -83.3708228 -0.139271E-04  0.115E-03    2.54      11.2  T
   5    -83.3708228 -0.473011E-07  0.531E-04    2.54      24.3  T
   6    -83.3708228  0.919016E-10  0.298E-04    2.54      43.4  T
     SCC iter.                  ...        0 min,  0.016 sec
     gradient                   ...        0 min,  0.028 sec
 * total energy  :   -82.2961920 Eh     change       -0.1908868E-03 Eh
   gradient norm :     0.0085393 Eh/α   predicted    -0.1482652E-03 ( -22.33%)
   displ. norm   :     0.0589231 α      lambda       -0.1000362E-03
   maximum displ.:     0.0238223 α      in ANC's #28, #36, #17, ...

........................................................................
.............................. CYCLE   11 ..............................
........................................................................
   1    -83.3714927 -0.833715E+02  0.276E-02    2.53       0.0  T
   2    -83.3714927 -0.648049E-07  0.163E-02    2.53       1.0  T
   3    -83.3714888  0.390224E-05  0.785E-03    2.53       1.6  T
   4    -83.3714930 -0.419262E-05  0.573E-04    2.53      22.5  T
   5    -83.3714930 -0.897934E-08  0.311E-04    2.53      41.5  T
   6    -83.3714930 -0.185790E-08  0.181E-04    2.53      71.5  T
     SCC iter.                  ...        0 min,  0.016 sec
     gradient                   ...        0 min,  0.028 sec
 * total energy  :   -82.2962622 Eh     change       -0.7020603E-04 Eh
   gradient norm :     0.0042333 Eh/α   predicted    -0.5020411E-04 ( -28.49%)
   displ. norm   :     0.0440069 α      lambda       -0.6936304E-04
   maximum displ.:     0.0195802 α      in ANC's #28, #17, #14, ...

........................................................................
.............................. CYCLE   12 ..............................
........................................................................
   1    -83.3723324 -0.833723E+02  0.193E-02    2.52       0.0  T
   2    -83.3723324 -0.561445E-07  0.116E-02    2.52       1.1  T
   3    -83.3723298  0.262009E-05  0.632E-03    2.52       2.0  T
   4    -83.3723327 -0.283446E-05  0.483E-04    2.52      26.7  T
   5    -83.3723327 -0.643196E-08  0.247E-04    2.52      52.4  T
   6    -83.3723327 -0.145498E-08  0.160E-04    2.52      80.8  T
     SCC iter.                  ...        0 min,  0.017 sec
     gradient                   ...        0 min,  0.028 sec
 * total energy  :   -82.2963123 Eh     change       -0.5016376E-04 Eh
   gradient norm :     0.0032007 Eh/α   predicted    -0.3475050E-04 ( -30.73%)
   displ. norm   :     0.0414024 α      lambda       -0.5862627E-04
   maximum displ.:     0.0186551 α      in ANC's #28, #17, #14, ...

........................................................................
.............................. CYCLE   13 ..............................
........................................................................
   1    -83.3732153 -0.833732E+02  0.167E-02    2.52       0.0  T
   2    -83.3732153 -0.418891E-07  0.102E-02    2.52       1.3  T
   3    -83.3732130  0.231166E-05  0.601E-03    2.52       2.1  T
   4    -83.3732155 -0.252346E-05  0.402E-04    2.52      32.1  T
   5    -83.3732156 -0.365992E-08  0.202E-04    2.52      64.0  T
   6    -83.3732156 -0.335447E-09  0.142E-04    2.52      91.0  T
     SCC iter.                  ...        0 min,  0.016 sec
     gradient                   ...        0 min,  0.028 sec
 * total energy  :   -82.2963539 Eh     change       -0.4162206E-04 Eh
   gradient norm :     0.0039747 Eh/α   predicted    -0.2938761E-04 ( -29.39%)
   displ. norm   :     0.0359122 α      lambda       -0.4256952E-04
   maximum displ.:     0.0158271 α      in ANC's #17, #28, #14, ...

........................................................................
.............................. CYCLE   14 ..............................
........................................................................
   1    -83.3737013 -0.833737E+02  0.139E-02    2.52       0.0  T
   2    -83.3737013 -0.316301E-07  0.839E-03    2.52       1.5  T
   3    -83.3737000  0.126154E-05  0.454E-03    2.52       2.8  T
   4    -83.3737014 -0.137544E-05  0.366E-04    2.52      35.3  T
   5    -83.3737014 -0.399410E-08  0.199E-04    2.52      64.9  T
   6    -83.3737014 -0.837005E-09  0.956E-05    2.52     135.0  T
     SCC iter.                  ...        0 min,  0.017 sec
     gradient                   ...        0 min,  0.028 sec
 * total energy  :   -82.2963839 Eh     change       -0.2998795E-04 Eh
   gradient norm :     0.0033873 Eh/α   predicted    -0.2131601E-04 ( -28.92%)
   displ. norm   :     0.0284187 α      lambda       -0.2874489E-04
   maximum displ.:     0.0118287 α      in ANC's #17, #14, #28, ...

........................................................................
.............................. CYCLE   15 ..............................
........................................................................
   1    -83.3736505 -0.833737E+02  0.110E-02    2.52       0.0  T
   2    -83.3736505 -0.451816E-07  0.658E-03    2.52       2.0  T
   3    -83.3736502  0.303125E-06  0.235E-03    2.52       5.5  T
   4    -83.3736506 -0.329398E-06  0.375E-04    2.52      34.4  T
   5    -83.3736506 -0.692485E-08  0.211E-04    2.52      61.3  T
     SCC iter.                  ...        0 min,  0.014 sec
     gradient                   ...        0 min,  0.028 sec
 * total energy  :   -82.2964039 Eh     change       -0.1999030E-04 Eh
   gradient norm :     0.0020663 Eh/α   predicted    -0.1440004E-04 ( -27.96%)
   displ. norm   :     0.0205619 α      lambda       -0.1792883E-04
   maximum displ.:     0.0082355 α      in ANC's #17, #36, #37, ...

........................................................................
.............................. CYCLE   16 ..............................
........................................................................
   1    -83.3732581 -0.833733E+02  0.817E-03    2.52       0.0  T
   2    -83.3732581 -0.347114E-07  0.491E-03    2.52       2.6  T
   3    -83.3732578  0.273683E-06  0.225E-03    2.52       5.7  T
   4    -83.3732581 -0.299198E-06  0.360E-04    2.52      35.9  T
   5    -83.3732581 -0.563772E-08  0.169E-04    2.52      76.3  T
     SCC iter.                  ...        0 min,  0.014 sec
     gradient                   ...        0 min,  0.028 sec
 * total energy  :   -82.2964167 Eh     change       -0.1276088E-04 Eh
   gradient norm :     0.0016776 Eh/α   predicted    -0.8972523E-05 ( -29.69%)
   displ. norm   :     0.0276076 α      lambda       -0.1380130E-04
   maximum displ.:     0.0117304 α      in ANC's #17, #36, #14, ...

........................................................................
.............................. CYCLE   17 ..............................
........................................................................
   1    -83.3725386 -0.833725E+02  0.111E-02    2.52       0.0  T
   2    -83.3725386 -0.379641E-07  0.678E-03    2.52       1.9  T
   3    -83.3725377  0.965935E-06  0.417E-03    2.53       3.1  T
   4    -83.3725387 -0.106222E-05  0.450E-04    2.52      28.7  T
   5    -83.3725387 -0.771385E-08  0.211E-04    2.52      61.2  T
   6    -83.3725387 -0.121179E-08  0.111E-04    2.52     116.1  T
     SCC iter.                  ...        0 min,  0.016 sec
     gradient                   ...        0 min,  0.029 sec
 * total energy  :   -82.2964287 Eh     change       -0.1206118E-04 Eh
   gradient norm :     0.0022303 Eh/α   predicted    -0.6935244E-05 ( -42.50%)
   displ. norm   :     0.0091841 α      lambda       -0.7337526E-05
   maximum displ.:     0.0036837 α      in ANC's #17, #14, #63, ...

........................................................................
.............................. CYCLE   18 ..............................
........................................................................
   1    -83.3724615 -0.833725E+02  0.412E-03    2.52       0.0  T
   2    -83.3724616 -0.267772E-08  0.247E-03    2.52       5.2  T
   3    -83.3724615  0.669547E-07  0.112E-03    2.53      11.6  T
   4    -83.3724616 -0.719730E-07  0.120E-04    2.52     107.5  T
   5    -83.3724616 -0.473733E-09  0.566E-05    2.52     228.1  T
     SCC iter.                  ...        0 min,  0.014 sec
     gradient                   ...        0 min,  0.028 sec
 * total energy  :   -82.2964350 Eh     change       -0.6216269E-05 Eh
   gradient norm :     0.0015877 Eh/α   predicted    -0.3674051E-05 ( -40.90%)
   displ. norm   :     0.0399896 α      lambda       -0.1508282E-04
   maximum displ.:     0.0180763 α      in ANC's #17, #14, #30, ...

........................................................................
.............................. CYCLE   19 ..............................
........................................................................
   1    -83.3725122 -0.833725E+02  0.158E-02    2.52       0.0  T
   2    -83.3725122 -0.623293E-07  0.945E-03    2.52       1.4  T
   3    -83.3725119  0.356623E-06  0.269E-03    2.52       4.8  T
   4    -83.3725123 -0.384272E-06  0.500E-04    2.52      25.8  T
   5    -83.3725123 -0.847569E-08  0.222E-04    2.52      58.3  T
     SCC iter.                  ...        0 min,  0.014 sec
     gradient                   ...        0 min,  0.028 sec
 * total energy  :   -82.2964437 Eh     change       -0.8713855E-05 Eh
   gradient norm :     0.0015896 Eh/α   predicted    -0.7551363E-05 ( -13.34%)
   displ. norm   :     0.0054615 α      lambda       -0.2957599E-05
   maximum displ.:     0.0023908 α      in ANC's #1, #63, #60, ...

........................................................................
.............................. CYCLE   20 ..............................
........................................................................
   1    -83.3727387 -0.833727E+02  0.336E-03    2.52       0.0  T
   2    -83.3727387 -0.960895E-09  0.205E-03    2.52       6.3  T
   3    -83.3727386  0.102518E-06  0.140E-03    2.52       9.2  T
   4    -83.3727387 -0.113447E-06  0.112E-04    2.52     114.8  T
   5    -83.3727387 -0.432493E-09  0.561E-05    2.52     230.1  T
     SCC iter.                  ...        0 min,  0.014 sec
     gradient                   ...        0 min,  0.028 sec
 * total energy  :   -82.2964471 Eh     change       -0.3428986E-05 Eh
   gradient norm :     0.0007715 Eh/α   predicted    -0.1485317E-05 ( -56.68%)
   displ. norm   :     0.0117656 α      lambda       -0.3916405E-05
   maximum displ.:     0.0051672 α      in ANC's #28, #6, #1, ...

   *** GEOMETRY OPTIMIZATION CONVERGED AFTER 20 ITERATIONS ***

------------------------------------------------------------------------
 total energy gain   :        -0.1775927 Eh     -111.4411 kcal/mol
 total RMSD          :         0.0879640 a0        0.0465 Å
 total power (kW/mol):       -23.3134757 (step) -429.8013 (real)
------------------------------------------------------------------------

 ANCopt (total)                0 d,  0 h,  0 min,  1.085 sec
 optimizer setup                ...        0 min,  0.000 sec (  0.011%)
 model hessian                  ...        0 min,  0.032 sec (  2.935%)
 ANC generation                 ...        0 min,  0.003 sec (  0.249%)
 coordinate transformation      ...        0 min,  0.000 sec (  0.027%)
 single point calculation       ...        0 min,  1.043 sec ( 96.100%)
 optimization log               ...        0 min,  0.004 sec (  0.398%)
 hessian update                 ...        0 min,  0.000 sec (  0.042%)
 rational function              ...        0 min,  0.002 sec (  0.161%)

================
 final structure:
================
60
 xtb: 6.5.0 (homebrew)
C            3.52198635923019      -37.71426905718400       15.89108149403228
C            3.75047151585384      -38.14138039454325       17.33907097680935
O            3.27418450301246      -37.12204992952653       18.21726017972334
C            2.92425040135933      -39.40168616852458       17.62690303510037
C            5.25769818869816      -38.29382025665704       17.75692538701898
C            5.77533491283445      -39.72987036469946       17.79260757043247
C            6.20105992062337      -37.43870721387947       16.90141092877858
O            5.28461531316544      -37.74585801025948       19.07465176633257
B            4.15390976857150      -36.99799026806903       19.26277344992357
C            3.88019812882380      -36.15075045620772       20.52852754889933
C            4.88782091558645      -36.05043870347044       21.53938226326392
C            4.89995323555721      -35.29031134750092       22.64671023369156
H            5.77706264803571      -35.31289596789576       23.27794323041271
C            3.84456058520484      -34.27439700558454       23.02058399087723
H            4.08152168720628      -33.86162611284072       24.00325929181802
C            2.46271952540627      -34.87954715359559       23.10312945064580
B            1.72468989181890      -34.87084268427460       24.47787416904285
O            2.25448947473124      -34.36814875927737       25.63417869605991
C            1.39240750325002      -34.70832011376485       26.71941238163558
C            1.28749278366389      -33.52689565627081       27.68088679915889
C            2.04098374707617      -35.89318284730069       27.44679736521179
C            0.05103714595854      -35.09775471571250       25.99874939799353
C           -0.93896463656660      -33.92954422976231       25.90624728885852
C           -0.66602440041625      -36.31222149444211       26.58441827321119
O            0.47413993199893      -35.39079512524688       24.66787958430218
C            1.89069043945957      -35.46110536768358       22.04623326127331
C            2.46941806060166      -35.59576891173246       20.69419203602017
H            1.78171850862153      -36.09917549186179       20.01789191215290
C            3.13363677987347      -34.43260873124462       20.02610104618673
C            3.72142051305237      -33.31701924214601       20.67400471935899
C            3.99019147106092      -33.18376795224358       21.98636821069320
H            4.46757865560354      -32.27438019963844       22.32340593026468
H            2.45217063067238      -37.65981081018128       15.70471041150789
H            3.96075517757604      -38.44028075728858       15.21206396195918
H            3.94707183430462      -36.73457661781195       15.69821928950619
H            1.87265313145855      -39.16790568353079       17.47667849969194
H            3.05578746118649      -39.70884116410703       18.66145622266817
H            3.20349419762854      -40.21443506656144       16.96309215732188
H            5.67914556793125      -40.19007817437242       16.81286296090588
H            5.23791489434470      -40.32205732106615       18.52610143483849
H            6.82533028202070      -39.71812845047493       18.07420978076448
H            6.26856932966422      -37.82103975175173       15.88738686611819
H            7.18947602545391      -37.45789235620520       17.35473746015640
H            5.86044049861875      -36.40630987468841       16.88487707896758
H            5.75285253259824      -36.67157338906213       21.33630076429683
H            2.26002628181165      -33.35389550167019       28.13503516713660
H            0.56739779682949      -33.74484181727106       28.46509072742522
H            0.99332324444058      -32.62145720731326       27.16014737863470
H            3.03660668337109      -35.59784834289348       27.76989439072503
H            2.14488267524087      -36.73707667315774       26.76932004841923
H            1.45984985254041      -36.18711115534548       28.31573380099247
H           -1.33808223744842      -33.67458194256458       26.88342592594095
H           -1.75837466924223      -34.22400624000779       25.25457225873657
H           -0.45639338697447      -33.06071505118468       25.46586857605475
H           -0.91350124924865      -36.13582696189874       27.62773145193053
H           -0.05612277979224      -37.20580715816480       26.50151644176639
H           -1.58499739448329      -36.47944535090009       26.02818631919039
H            0.90775206184975      -35.89419550446951       22.17703269672598
H            3.06089523745438      -34.41506721544932       18.95077298944986
H            3.98258284123537      -32.49505452756580       20.01587306898331

 Bond Distances (Angstroems)
 ---------------------------
C1-C2=1.5269         C1-H33=1.0873        C1-H34=1.0866        C1-H35=1.0852        C2-C1=1.5269         C2-O3=1.4273         
C2-C4=1.5342         C2-C5=1.5715         O3-C2=1.4273         O3-B9=1.3720         C4-C2=1.5342         C4-H36=1.0877        
C4-H37=1.0872        C4-H38=1.0859        C5-C2=1.5715         C5-C6=1.5269         C5-C7=1.5340         C5-O8=1.4274         
C6-C5=1.5269         C6-H39=1.0867        C6-H40=1.0851        C6-H41=1.0872        C7-C5=1.5340         C7-H42=1.0858        
C7-H43=1.0876        C7-H44=1.0873        O8-C5=1.4274         O8-B9=1.3686         B9-O3=1.3720         B9-O8=1.3686         
B9-C10=1.5475        C10-B9=1.5475        C10-C11=1.4308       C10-C27=1.5250       C10-C29=1.9395       C11-C10=1.4308       
C11-C12=1.3432       C11-H45=1.0841       C12-C11=1.3432       C12-H13=1.0809       C12-C14=1.5119       H13-C12=1.0809       
C14-C12=1.5119       C14-H15=1.0919       C14-C16=1.5108       C14-C31=1.5101       H15-C14=1.0919       C16-C14=1.5108       
C16-B17=1.5603       C16-C26=1.3351       B17-C16=1.5603       B17-O18=1.3676       B17-O25=1.3676       O18-B17=1.3676       
O18-C19=1.4271       C19-O18=1.4271       C19-C20=1.5268       C19-C21=1.5342       C19-C22=1.5717       C20-C19=1.5268       
C20-H46=1.0872       C20-H47=1.0867       C20-H48=1.0851       C21-C19=1.5342       C21-H49=1.0876       C21-H50=1.0872       
C21-H51=1.0859       C22-C19=1.5717       C22-C23=1.5341       C22-C24=1.5271       C22-O25=1.4269       C23-C22=1.5341       
C23-H52=1.0859       C23-H53=1.0876       C23-H54=1.0870       C24-C22=1.5271       C24-H55=1.0867       C24-H56=1.0851       
C24-H57=1.0871       O25-B17=1.3676       O25-C22=1.4269       C26-C16=1.3351       C26-C27=1.4768       C26-H58=1.0821       
C27-C10=1.5250       C27-C26=1.4768       C27-H28=1.0880       C27-C29=1.4968       H28-C27=1.0880       C29-C10=1.9395       
C29-C27=1.4968       C29-C30=1.4177       C29-H59=1.0779       C30-C29=1.4177       C30-C31=1.3462       C30-H60=1.0849       
C31-C14=1.5101       C31-C30=1.3462       C31-H32=1.0810       H32-C31=1.0810       H33-C1=1.0873        H34-C1=1.0866        
H35-C1=1.0852        H36-C4=1.0877        H37-C4=1.0872        H38-C4=1.0859        H39-C6=1.0867        H40-C6=1.0851        
H41-C6=1.0872        H42-C7=1.0858        H43-C7=1.0876        H44-C7=1.0873        H45-C11=1.0841       H46-C20=1.0872       
H47-C20=1.0867       H48-C20=1.0851       H49-C21=1.0876       H50-C21=1.0872       H51-C21=1.0859       H52-C23=1.0859       
H53-C23=1.0876       H54-C23=1.0870       H55-C24=1.0867       H56-C24=1.0851       H57-C24=1.0871       H58-C26=1.0821       
H59-C29=1.0779       H60-C30=1.0849       
 C  H  Rav=1.0859 sigma=0.0025  Rmin=1.0779  Rmax=1.0919    32
 C  B  Rav=1.5539 sigma=0.0064  Rmin=1.5475  Rmax=1.5603     2
 C  C  Rav=1.5105 sigma=0.1162  Rmin=1.3351  Rmax=1.9395    22
 O  B  Rav=1.3690 sigma=0.0018  Rmin=1.3676  Rmax=1.3720     4
 O  C  Rav=1.4272 sigma=0.0002  Rmin=1.4269  Rmax=1.4274     4

 selected bond angles (degree)
 --------------------
H33-C1-C2=108.89               H34-C1-C2=110.20               H34-C1-H33=108.88              H35-C1-C2=111.25               
H35-C1-H33=108.04              H35-C1-H34=109.51              O3-C2-C1=109.50                C4-C2-C1=109.09                
C4-C2-O3=106.95                C5-C2-C1=115.01                C5-C2-O3=103.05                C5-C2-C4=112.76                
B9-O3-C2=108.63                H36-C4-C2=108.55               H37-C4-C2=110.21               H37-C4-H36=108.01              
H38-C4-C2=111.20               H38-C4-H36=108.97              H38-C4-H37=109.82              C6-C5-C2=115.00                
C7-C5-C2=112.80                C7-C5-C6=109.20                O8-C5-C2=103.08                O8-C5-C6=109.46                
O8-C5-C7=106.81                H39-C6-C5=110.32               H40-C6-C5=111.17               H40-C6-H39=109.54              
H41-C6-C5=108.86               H41-C6-H39=108.88              H41-C6-H40=108.01              H42-C7-C5=111.27               
H43-C7-C5=108.46               H43-C7-H42=109.06              H44-C7-C5=110.19               H44-C7-H42=109.85              
H44-C7-H43=107.93              B9-O8-C5=108.73                O8-B9-O3=112.06                C10-B9-O3=124.01               
C10-B9-O8=123.90               C11-C10-B9=119.45              C27-C10-B9=116.85              C27-C10-C11=123.31             
C29-C10-B9=109.95              C29-C10-C11=113.08             C29-C10-C27= 49.43             

 selected dihedral angles (degree)
 ---------------------------------
O3-C2-C1-H33=294.28           O3-C2-C1-H34=174.91           O3-C2-C1-H35= 53.25           C4-C2-C1-H33= 51.01           
C4-C2-C1-H34=291.64           C4-C2-C1-H35=169.98           C5-C2-C1-H33=178.85           C5-C2-C1-H34= 59.48           
C5-C2-C1-H35=297.82           B9-O3-C2-C1=219.76            B9-O3-C2-C4=101.68            B9-O3-C2-C5=342.61            
H36-C4-C2-C1=299.41           H36-C4-C2-O3= 57.75           H36-C4-C2-C5=170.32           H37-C4-C2-C1=181.31           
H37-C4-C2-O3=299.65           H37-C4-C2-C5= 52.22           H38-C4-C2-C1= 59.27           H38-C4-C2-O3=177.62           
H38-C4-C2-C5=290.18           C6-C5-C2-C1=258.96            C6-C5-C2-O3=139.87            C6-C5-C2-C4= 24.92            
C7-C5-C2-C1= 25.08            C7-C5-C2-O3=265.99            C7-C5-C2-C4=151.04            O8-C5-C2-C1=139.90            
O8-C5-C2-O3= 20.81            O8-C5-C2-C4=265.87            H39-C6-C5-C2= 59.59           H39-C6-C5-C7=291.63           
H39-C6-C5-O8=175.03           H40-C6-C5-C2=297.86           H40-C6-C5-C7=169.91           H40-C6-C5-O8= 53.30           
H41-C6-C5-C2=179.00           H41-C6-C5-C7= 51.05           H41-C6-C5-O8=294.44           H42-C7-C5-C2=290.09           
H42-C7-C5-C6= 59.27           H42-C7-C5-O8=177.54           H43-C7-C5-C2=170.13           H43-C7-C5-C6=299.31           
H43-C7-C5-O8= 57.58           H44-C7-C5-C2= 52.20           H44-C7-C5-C6=181.37           H44-C7-C5-O8=299.65           
B9-O8-C5-C2=342.86            B9-O8-C5-C6=220.02            B9-O8-C5-C7=101.92            O8-B9-O3-C2=  7.60            
C10-B9-O3-C2=189.56           O3-B9-O8-C5=  7.15            C10-B9-O8-C5=185.20           C11-C10-B9-O3=182.27          
C11-C10-B9-O8=  4.46          C27-C10-B9-O3=  9.14          C27-C10-B9-O8=191.32          C29-C10-B9-O3=315.42          
C29-C10-B9-O8=137.60          
           -------------------------------------------------
          |                Final Singlepoint                |
           -------------------------------------------------

          ...................................................
          :                      SETUP                      :
          :.................................................:
          :  # basis functions                 144          :
          :  # atomic orbitals                 144          :
          :  # shells                           88          :
          :  # electrons                       150          :
          :  max. iterations                   250          :
          :  Hamiltonian                  GFN2-xTB          :
          :  restarted?                      false          :
          :  GBSA solvation                  false          :
          :  PC potential                    false          :
          :  electronic temp.          300.0000000     K    :
          :  accuracy                    1.0000000          :
          :  -> integral cutoff          0.2500000E+02      :
          :  -> integral neglect         0.1000000E-07      :
          :  -> SCF convergence          0.1000000E-05 Eh   :
          :  -> wf. convergence          0.1000000E-03 e    :
          :  Broyden damping             0.4000000          :
          ...................................................

 iter      E             dE          RMSdq      gap      omega  full diag
   1    -83.3727387 -0.833727E+02  0.318E-05    2.52       0.0  T
   2    -83.3727387  0.630962E-11  0.252E-05    2.52     512.8  T
   3    -83.3727387 -0.283933E-10  0.134E-05    2.52     960.5  T

   *** convergence criteria satisfied after 3 iterations ***

         #    Occupation            Energy/Eh            Energy/eV
      -------------------------------------------------------------
         1        2.0000           -0.6893642             -18.7586
       ...           ...                  ...                  ...
        69        2.0000           -0.4018812             -10.9357
        70        2.0000           -0.3983120             -10.8386
        71        2.0000           -0.3965783             -10.7914
        72        2.0000           -0.3938663             -10.7176
        73        2.0000           -0.3912345             -10.6460
        74        2.0000           -0.3609711              -9.8225
        75        2.0000           -0.3352932              -9.1238 (HOMO)
        76                         -0.2425274              -6.5995 (LUMO)
        77                         -0.2178882              -5.9290
        78                         -0.1826213              -4.9694
        79                         -0.1428192              -3.8863
        80                         -0.0958072              -2.6070
       ...                                ...                  ...
       144                          0.6767816              18.4162
      -------------------------------------------------------------
                  HL-Gap            0.0927659 Eh            2.5243 eV
             Fermi-level           -0.2889103 Eh           -7.8616 eV

 SCC (total)                   0 d,  0 h,  0 min,  0.044 sec
 SCC setup                      ...        0 min,  0.000 sec (  0.544%)
 Dispersion                     ...        0 min,  0.000 sec (  0.885%)
 classical contributions        ...        0 min,  0.000 sec (  0.405%)
 integral evaluation            ...        0 min,  0.006 sec ( 14.355%)
 iterations                     ...        0 min,  0.009 sec ( 20.240%)
 molecular gradient             ...        0 min,  0.028 sec ( 62.741%)
 printout                       ...        0 min,  0.000 sec (  0.808%)

         :::::::::::::::::::::::::::::::::::::::::::::::::::::
         ::                     SUMMARY                     ::
         :::::::::::::::::::::::::::::::::::::::::::::::::::::
         :: total energy             -82.296447107096 Eh    ::
         :: gradient norm              0.000771507806 Eh/a0 ::
         :: HOMO-LUMO gap              2.524287711457 eV    ::
         ::.................................................::
         :: SCC energy               -83.372738685860 Eh    ::
         :: -> isotropic ES            0.148245762856 Eh    ::
         :: -> anisotropic ES          0.011801904068 Eh    ::
         :: -> anisotropic XC          0.027200438622 Eh    ::
         :: -> dispersion             -0.062018749440 Eh    ::
         :: repulsion energy           1.075421657181 Eh    ::
         :: add. restraining           0.000178820496 Eh    ::
         :: total charge              -0.000000000000 e     ::
         :::::::::::::::::::::::::::::::::::::::::::::::::::::

           -------------------------------------------------
          |                Property Printout                |
           -------------------------------------------------

    * Orbital Energies and Occupations

         #    Occupation            Energy/Eh            Energy/eV
      -------------------------------------------------------------
         1        2.0000           -0.6893642             -18.7586
       ...           ...                  ...                  ...
        63        2.0000           -0.4343615             -11.8196
        64        2.0000           -0.4325063             -11.7691
        65        2.0000           -0.4231919             -11.5156
        66        2.0000           -0.4222237             -11.4893
        67        2.0000           -0.4186467             -11.3920
        68        2.0000           -0.4165367             -11.3345
        69        2.0000           -0.4018812             -10.9357
        70        2.0000           -0.3983120             -10.8386
        71        2.0000           -0.3965783             -10.7914
        72        2.0000           -0.3938663             -10.7176
        73        2.0000           -0.3912345             -10.6460
        74        2.0000           -0.3609711              -9.8225
        75        2.0000           -0.3352932              -9.1238 (HOMO)
        76                         -0.2425274              -6.5995 (LUMO)
        77                         -0.2178882              -5.9290
        78                         -0.1826213              -4.9694
        79                         -0.1428192              -3.8863
        80                         -0.0958072              -2.6070
        81                         -0.0722738              -1.9667
        82                          0.0090481               0.2462
        83                          0.0103481               0.2816
        84                          0.0274112               0.7459
        85                          0.0298345               0.8118
        86                          0.0559612               1.5228
       ...                                ...                  ...
       144                          0.6767816              18.4162
      -------------------------------------------------------------
                  HL-Gap            0.0927659 Eh            2.5243 eV
             Fermi-level           -0.2889103 Eh           -7.8616 eV

     #   Z          covCN         q      C6AA      α(0)
     1   6 C        3.755    -0.117    22.790     6.807
     2   6 C        3.859     0.130    18.437     6.107
     3   8 O        1.638    -0.381    20.485     6.109
     4   6 C        3.755    -0.116    22.777     6.805
     5   6 C        3.860     0.130    18.441     6.107
     6   6 C        3.755    -0.117    22.803     6.809
     7   6 C        3.755    -0.115    22.765     6.803
     8   8 O        1.638    -0.374    20.366     6.092
     9   5 B        2.658     0.434    15.546     6.639
    10   6 C        3.475    -0.071    24.002     7.336
    11   6 C        2.890    -0.040    29.003     8.830
    12   6 C        2.909    -0.039    28.957     8.824
    13   1 H        0.926     0.025     2.657     2.549
    14   6 C        3.863    -0.016    20.822     6.489
    15   1 H        0.924     0.044     2.398     2.422
    16   6 C        2.866    -0.080    30.003     8.979
    17   5 B        2.662     0.432    15.557     6.639
    18   8 O        1.638    -0.370    20.278     6.079
    19   6 C        3.860     0.129    18.456     6.110
    20   6 C        3.755    -0.117    22.797     6.808
    21   6 C        3.755    -0.116    22.777     6.805
    22   6 C        3.860     0.129    18.454     6.109
    23   6 C        3.755    -0.116    22.782     6.806
    24   6 C        3.755    -0.117    22.804     6.809
    25   8 O        1.638    -0.372    20.320     6.085
    26   6 C        2.896    -0.029    28.718     8.786
    27   6 C        3.861    -0.004    20.611     6.456
    28   1 H        0.925     0.047     2.363     2.404
    29   6 C        3.503    -0.016    22.456     7.025
    30   6 C        2.888    -0.037    28.930     8.818
    31   6 C        2.910    -0.034    28.838     8.806
    32   1 H        0.926     0.027     2.634     2.538
    33   1 H        0.925     0.054     2.270     2.356
    34   1 H        0.925     0.040     2.455     2.450
    35   1 H        0.925     0.051     2.306     2.375
    36   1 H        0.925     0.052     2.300     2.372
    37   1 H        0.925     0.044     2.402     2.424
    38   1 H        0.925     0.042     2.417     2.431
    39   1 H        0.925     0.040     2.453     2.449
    40   1 H        0.925     0.052     2.291     2.367
    41   1 H        0.925     0.054     2.265     2.353
    42   1 H        0.925     0.042     2.417     2.431
    43   1 H        0.925     0.052     2.293     2.368
    44   1 H        0.925     0.043     2.415     2.430
    45   1 H        0.925     0.034     2.524     2.484
    46   1 H        0.925     0.054     2.267     2.355
    47   1 H        0.925     0.039     2.456     2.451
    48   1 H        0.925     0.052     2.296     2.370
    49   1 H        0.925     0.052     2.293     2.368
    50   1 H        0.925     0.044     2.400     2.423
    51   1 H        0.925     0.042     2.420     2.433
    52   1 H        0.925     0.043     2.415     2.430
    53   1 H        0.925     0.052     2.293     2.368
    54   1 H        0.925     0.044     2.401     2.423
    55   1 H        0.925     0.040     2.452     2.449
    56   1 H        0.925     0.052     2.294     2.369
    57   1 H        0.925     0.054     2.268     2.355
    58   1 H        0.925     0.038     2.481     2.463
    59   1 H        0.926     0.038     2.476     2.461
    60   1 H        0.925     0.025     2.652     2.547

 Mol. C6AA /au·bohr⁶  :      32943.643426
 Mol. C8AA /au·bohr⁸  :     763188.588307
 Mol. α(0) /au        :        274.341775


Wiberg/Mayer (AO) data.
largest (>0.10) Wiberg bond orders for each atom

 ---------------------------------------------------------------------------
     #   Z sym  total        # sym  WBO       # sym  WBO       # sym  WBO
 ---------------------------------------------------------------------------
     1   6 C    3.994 --     2 C    0.997    34 H    0.985    33 H    0.983
                            35 H    0.982
     2   6 C    3.943 --     1 C    0.997     4 C    0.991     3 O    0.953
                             5 C    0.937
     3   8 O    2.216 --     9 B    1.112     2 C    0.953
     4   6 C    3.994 --     2 C    0.991    38 H    0.984    37 H    0.984
                            36 H    0.983
     5   6 C    3.942 --     6 C    0.997     7 C    0.991     8 O    0.952
                             2 C    0.937
     6   6 C    3.994 --     5 C    0.997    39 H    0.985    41 H    0.983
                            40 H    0.982
     7   6 C    3.994 --     5 C    0.991    42 H    0.984    44 H    0.984
                            43 H    0.983
     8   8 O    2.225 --     9 B    1.122     5 C    0.952
     9   5 B    3.388 --     8 O    1.122     3 O    1.112    10 C    1.025
    10   6 C    3.915 --    11 C    1.201     9 B    1.025    27 C    0.907
                            29 C    0.548    31 C    0.110
    11   6 C    3.991 --    12 C    1.742    10 C    1.201    45 H    0.960
    12   6 C    3.982 --    11 C    1.742    14 C    0.976    13 H    0.970
    13   1 H    0.999 --    12 C    0.970
    14   6 C    3.995 --    16 C    0.984    31 C    0.982    12 C    0.976
                            15 H    0.972
    15   1 H    0.998 --    14 C    0.972
    16   6 C    3.976 --    26 C    1.835    17 B    0.999    14 C    0.984
    17   5 B    3.375 --    18 O    1.130    25 O    1.129    16 C    0.999
    18   8 O    2.235 --    17 B    1.130    19 C    0.953
    19   6 C    3.943 --    20 C    0.997    21 C    0.991    18 O    0.953
                            22 C    0.937
    20   6 C    3.994 --    19 C    0.997    47 H    0.984    46 H    0.983
                            48 H    0.982
    21   6 C    3.994 --    19 C    0.991    51 H    0.984    50 H    0.984
                            49 H    0.983
    22   6 C    3.943 --    24 C    0.996    23 C    0.990    25 O    0.953
                            19 C    0.937
    23   6 C    3.995 --    22 C    0.990    52 H    0.984    54 H    0.984
                            53 H    0.983
    24   6 C    3.994 --    22 C    0.996    55 H    0.985    57 H    0.983
                            56 H    0.982
    25   8 O    2.233 --    17 B    1.129    22 C    0.953
    26   6 C    3.988 --    16 C    1.835    27 C    1.040    58 H    0.965
    27   6 C    3.982 --    26 C    1.040    28 H    0.967    29 C    0.962
                            10 C    0.907
    28   1 H    0.998 --    27 C    0.967
    29   6 C    3.936 --    30 C    1.235    59 H    0.974    27 C    0.962
                            10 C    0.548
    30   6 C    3.991 --    31 C    1.715    29 C    1.235    60 H    0.962
    31   6 C    3.973 --    30 C    1.715    14 C    0.982    32 H    0.971
                            10 C    0.110
    32   1 H    0.999 --    31 C    0.971
    33   1 H    0.997 --     1 C    0.983
    34   1 H    0.998 --     1 C    0.985
    35   1 H    0.997 --     1 C    0.982
    36   1 H    0.997 --     4 C    0.983
    37   1 H    0.998 --     4 C    0.984
    38   1 H    0.998 --     4 C    0.984
    39   1 H    0.998 --     6 C    0.985
    40   1 H    0.997 --     6 C    0.982
    41   1 H    0.997 --     6 C    0.983
    42   1 H    0.998 --     7 C    0.984
    43   1 H    0.997 --     7 C    0.983
    44   1 H    0.998 --     7 C    0.984
    45   1 H    0.999 --    11 C    0.960
    46   1 H    0.997 --    20 C    0.983
    47   1 H    0.998 --    20 C    0.984
    48   1 H    0.997 --    20 C    0.982
    49   1 H    0.997 --    21 C    0.983
    50   1 H    0.998 --    21 C    0.984
    51   1 H    0.998 --    21 C    0.984
    52   1 H    0.998 --    23 C    0.984
    53   1 H    0.997 --    23 C    0.983
    54   1 H    0.998 --    23 C    0.984
    55   1 H    0.998 --    24 C    0.985
    56   1 H    0.997 --    24 C    0.982
    57   1 H    0.997 --    24 C    0.983
    58   1 H    0.998 --    26 C    0.965
    59   1 H    0.998 --    29 C    0.974
    60   1 H    0.999 --    30 C    0.962
 ---------------------------------------------------------------------------

Topologies differ in total number of bonds
Writing topology from bond orders to xtbtopo.mol

molecular dipole:
                 x           y           z       tot (Debye)
 q only:       -0.327      -0.393      -0.026
   full:       -0.245      -0.472      -0.142       1.399
molecular quadrupole (traceless):
                xx          xy          yy          xz          yz          zz
 q only:      -39.100      26.925      49.023     -33.159     -12.352      -9.923
  q+dip:      -40.085      19.324      61.740     -29.436      -3.358     -21.655
   full:      -40.274      18.390      63.242     -30.689      -4.789     -22.968

           -------------------------------------------------
          |                Geometry Summary                 |
           -------------------------------------------------

      molecular mass/u    :      382.1099696
   center of mass at/Å    :        2.9431949     -35.9434963      21.8358463
  moments of inertia/u·Å² :        0.1169901E+04   0.6886400E+04   0.7138125E+04
rotational constants/cm⁻¹ :        0.1440945E-01   0.2447960E-02   0.2361633E-02

 * 57 selected distances

     #   Z          #   Z                                           value/Å
     1   6 C        2   6 C                                       1.5268607
     2   6 C        3   8 O                                       1.4272703
     2   6 C        4   6 C                                       1.5342294
     5   6 C        6   6 C                                       1.5269124
     5   6 C        7   6 C                                       1.5339671
     5   6 C        8   8 O                                       1.4273718
     3   8 O        9   5 B                                       1.3720079
     8   8 O        9   5 B                                       1.3686458
     9   5 B       10   6 C                                       1.5475359
    10   6 C       11   6 C                                       1.4308018
    11   6 C       12   6 C                                       1.3431740
    12   6 C       13   1 H                                       1.0808729
    14   6 C       15   1 H                                       1.0918706
    16   6 C       17   5 B                                       1.5603484 (max)
    17   5 B       18   8 O                                       1.3676364
    18   8 O       19   6 C                                       1.4271070
    19   6 C       20   6 C                                       1.5268282
    19   6 C       21   6 C                                       1.5341578
    22   6 C       23   6 C                                       1.5340718
    22   6 C       24   6 C                                       1.5271265
    17   5 B       25   8 O                                       1.3675994
    22   6 C       25   8 O                                       1.4269210
    16   6 C       26   6 C                                       1.3350869
    26   6 C       27   6 C                                       1.4768466
    27   6 C       28   1 H                                       1.0879940
    27   6 C       29   6 C                                       1.4968213
    29   6 C       30   6 C                                       1.4176774
    30   6 C       31   6 C                                       1.3462140
    31   6 C       32   1 H                                       1.0809622
     1   6 C       33   1 H                                       1.0872929
     1   6 C       34   1 H                                       1.0865892
     1   6 C       35   1 H                                       1.0852147
     4   6 C       36   1 H                                       1.0876938
     4   6 C       37   1 H                                       1.0871737
     4   6 C       38   1 H                                       1.0859019
     6   6 C       39   1 H                                       1.0867122
     6   6 C       40   1 H                                       1.0851355
     6   6 C       41   1 H                                       1.0871652
     7   6 C       42   1 H                                       1.0858088
     7   6 C       43   1 H                                       1.0875843
     7   6 C       44   1 H                                       1.0872624
    11   6 C       45   1 H                                       1.0841265
    20   6 C       46   1 H                                       1.0871989
    20   6 C       47   1 H                                       1.0867444
    20   6 C       48   1 H                                       1.0851379
    21   6 C       49   1 H                                       1.0876026
    21   6 C       50   1 H                                       1.0871649
    21   6 C       51   1 H                                       1.0858919
    23   6 C       52   1 H                                       1.0859001
    23   6 C       53   1 H                                       1.0875759
    23   6 C       54   1 H                                       1.0870477
    24   6 C       55   1 H                                       1.0866749
    24   6 C       56   1 H                                       1.0850568
    24   6 C       57   1 H                                       1.0871382
    26   6 C       58   1 H                                       1.0820553
    29   6 C       59   1 H                                       1.0779284 (min)
    30   6 C       60   1 H                                       1.0848821

 * 5 distinct bonds (by element types)

   Z      Z             #   av. dist./Å        max./Å        min./Å
   1 H    6 C          32     1.0859175     1.0918706     1.0779284
   5 B    6 C           2     1.5539421     1.5603484     1.5475359
   6 C    6 C          15     1.4727184     1.5342294     1.3350869
   5 B    8 O           4     1.3689724     1.3720079     1.3675994
   6 C    8 O           4     1.4271675     1.4273718     1.4269210


optimized geometry written to: xtbopt.xyz


           -------------------------------------------------
          | TOTAL ENERGY              -82.296447107096 Eh   |
          | GRADIENT NORM               0.000771507806 Eh/α |
          | HOMO-LUMO GAP               2.524287711457 eV   |
           -------------------------------------------------

------------------------------------------------------------------------
 * finished run on 2022/07/09 at 18:33:36.842     
------------------------------------------------------------------------
 total:
 * wall-time:     0 d,  0 h,  0 min,  1.214 sec
 *  cpu-time:     0 d,  0 h,  0 min,  1.211 sec
 * ratio c/w:     0.998 speedup
 SCF:
 * wall-time:     0 d,  0 h,  0 min,  0.071 sec
 *  cpu-time:     0 d,  0 h,  0 min,  0.071 sec
 * ratio c/w:     0.995 speedup
 ANC optimizer:
 * wall-time:     0 d,  0 h,  0 min,  1.130 sec
 *  cpu-time:     0 d,  0 h,  0 min,  1.128 sec
 * ratio c/w:     0.998 speedup

