      -----------------------------------------------------------      
     |                   =====================                   |     
     |                           x T B                           |     
     |                   =====================                   |     
     |                         S. Grimme                         |     
     |          Mulliken Center for Theoretical Chemistry        |     
     |                    University of Bonn                     |     
      -----------------------------------------------------------      

   * xtb version 6.5.0 (homebrew) compiled by 'nhattrup@GPGGRP-SHANNON.CHEME.CMU.EDU' on 

   xtb is free software: you can redistribute it and/or modify it under
   the terms of the GNU Lesser General Public License as published by
   the Free Software Foundation, either version 3 of the License, or
   (at your option) any later version.
   
   xtb is distributed in the hope that it will be useful,
   but WITHOUT ANY WARRANTY; without even the implied warranty of
   MERCHANTABILITY or FITNESS FOR A PARTICULAR PURPOSE.  See the
   GNU Lesser General Public License for more details.
   
   Cite this work as:
   * C. Bannwarth, E. Caldeweyher, S. Ehlert, A. Hansen, P. Pracht,
     J. Seibert, S. Spicher, S. Grimme, WIREs Comput. Mol. Sci., 2020, 11,
     e01493. DOI: 10.1002/wcms.1493
   
   for GFN2-xTB:
   * C. Bannwarth, S. Ehlert and S. Grimme., J. Chem. Theory Comput., 2019,
     15, 1652-1671. DOI: 10.1021/acs.jctc.8b01176
   for GFN1-xTB:
   * S. Grimme, C. Bannwarth, P. Shushkov, J. Chem. Theory Comput., 2017,
     13, 1989-2009. DOI: 10.1021/acs.jctc.7b00118
   for GFN0-xTB:
   * P. Pracht, E. Caldeweyher, S. Ehlert, S. Grimme, ChemRxiv, 2019, preprint.
     DOI: 10.26434/chemrxiv.8326202.v1
   for GFN-FF:
   * S. Spicher and S. Grimme, Angew. Chem. Int. Ed., 2020, 59, 15665-15673.
     DOI: 10.1002/anie.202004239
   
   for ALPB and GBSA implicit solvation:
   * S. Ehlert, M. Stahn, S. Spicher, S. Grimme, J. Chem. Theory Comput.,
     2021, 17, 4250-4261. DOI: 10.1021/acs.jctc.1c00471
   
   for DFT-D4:
   * E. Caldeweyher, C. Bannwarth and S. Grimme, J. Chem. Phys., 2017,
     147, 034112. DOI: 10.1063/1.4993215
   * E. Caldeweyher, S. Ehlert, A. Hansen, H. Neugebauer, S. Spicher,
     C. Bannwarth and S. Grimme, J. Chem. Phys., 2019, 150, 154122.
     DOI: 10.1063/1.5090222
   * E. Caldeweyher, J.-M. Mewes, S. Ehlert and S. Grimme, Phys. Chem. Chem. Phys.
     2020, 22, 8499-8512. DOI: 10.1039/D0CP00502A
   
   for sTDA-xTB:
   * S. Grimme and C. Bannwarth, J. Chem. Phys., 2016, 145, 054103.
     DOI: 10.1063/1.4959605
   
   in the mass-spec context:
   * V. Asgeirsson, C. Bauer and S. Grimme, Chem. Sci., 2017, 8, 4879.
     DOI: 10.1039/c7sc00601b
   * J. Koopman and S. Grimme, ACS Omega 2019, 4, 12, 15120-15133.
     DOI: 10.1021/acsomega.9b02011
   
   for metadynamics refer to:
   * S. Grimme, J. Chem. Theory Comput., 2019, 155, 2847-2862
     DOI: 10.1021/acs.jctc.9b00143
   
   for SPH calculations refer to:
   * S. Spicher and S. Grimme, J. Chem. Theory Comput., 2021, 17, 1701-1714
     DOI: 10.1021/acs.jctc.0c01306
   
   with help from (in alphabetical order)
   P. Atkinson, C. Bannwarth, F. Bohle, G. Brandenburg, E. Caldeweyher
   M. Checinski, S. Dohm, S. Ehlert, S. Ehrlich, I. Gerasimov, C. Hölzer
   A. Katbashev, J. Koopman, C. Lavigne, S. Lehtola, F. März, M. Müller,
   F. Musil, H. Neugebauer, J. Pisarek, C. Plett, P. Pracht, F. Pultar,
   J. Seibert, P. Shushkov, S. Spicher, M. Stahn, M. Steiner, T. Strunk,
   J. Stückrath, T. Rose, and J. Unsleber
   
 * started run on 2022/07/09 at 18:33:37.949     

           -------------------------------------------------
          |                Calculation Setup                |
           -------------------------------------------------

          program call               : /opt/homebrew/bin/xtb bvl_bpin2_scan_6-8_xtb.xyz --chrg 0 --uhf 0 --opt --input xcontrol_bvl_bpin2_scan_6-8_xtb
          coordinate file            : bvl_bpin2_scan_6-8_xtb.xyz
          omp threads                :                     1

   ID    Z sym.   atoms
    1    6 C      1, 2, 4-7, 10-12, 14, 16, 19-24, 26, 27, 29-31
    2    8 O      3, 8, 18, 25
    3    5 B      9, 17
    4    1 H      13, 15, 28, 32-60
constraining bond 12 31 to    2.1667000 Å, actual value:    2.0580861 Å
constraining bond 10 29 to    1.6111000 Å, actual value:    1.7194388 Å

           -------------------------------------------------
          |                 G F N 2 - x T B                 |
           -------------------------------------------------

        Reference                      10.1021/acs.jctc.8b01176
      * Hamiltonian:
        H0-scaling (s, p, d)           1.850000    2.230000    2.230000
        zeta-weighting                 0.500000
      * Dispersion:
        s8                             2.700000
        a1                             0.520000
        a2                             5.000000
        s9                             5.000000
      * Repulsion:
        kExp                           1.500000    1.000000
        rExp                           1.000000
      * Coulomb:
        alpha                          2.000000
        third order                    shell-resolved
        anisotropic                    true
        a3                             3.000000
        a5                             4.000000
        cn-shift                       1.200000
        cn-exp                         4.000000
        max-rad                        5.000000


          ...................................................
          :                      SETUP                      :
          :.................................................:
          :  # basis functions                 144          :
          :  # atomic orbitals                 144          :
          :  # shells                           88          :
          :  # electrons                       150          :
          :  max. iterations                   250          :
          :  Hamiltonian                  GFN2-xTB          :
          :  restarted?                      false          :
          :  GBSA solvation                  false          :
          :  PC potential                    false          :
          :  electronic temp.          300.0000000     K    :
          :  accuracy                    1.0000000          :
          :  -> integral cutoff          0.2500000E+02      :
          :  -> integral neglect         0.1000000E-07      :
          :  -> SCF convergence          0.1000000E-05 Eh   :
          :  -> wf. convergence          0.1000000E-03 e    :
          :  Broyden damping             0.4000000          :
          ...................................................

 iter      E             dE          RMSdq      gap      omega  full diag
   1    -82.9500079 -0.829500E+02  0.470E+00    3.45       0.0  T
   2    -83.3392361 -0.389228E+00  0.288E+00    2.92       1.0  T
   3    -83.3534631 -0.142269E-01  0.138E+00    3.28       1.0  T
   4    -83.3764003 -0.229373E-01  0.404E-01    3.10       1.0  T
   5    -83.3870807 -0.106804E-01  0.146E-01    3.17       1.0  T
   6    -83.3870269  0.538576E-04  0.812E-02    3.17       1.0  T
   7    -83.3872056 -0.178774E-03  0.221E-02    3.16       1.0  T
   8    -83.3872193 -0.136738E-04  0.748E-03    3.16       1.7  T
   9    -83.3872205 -0.113700E-05  0.358E-03    3.16       3.6  T
  10    -83.3872205 -0.863684E-07  0.166E-03    3.16       7.8  T
  11    -83.3872206 -0.980768E-07  0.438E-04    3.16      29.5  T
  12    -83.3872206 -0.299586E-08  0.213E-04    3.16      60.7  T

   *** convergence criteria satisfied after 12 iterations ***

         #    Occupation            Energy/Eh            Energy/eV
      -------------------------------------------------------------
         1        2.0000           -0.6919013             -18.8276
       ...           ...                  ...                  ...
        69        2.0000           -0.4051610             -11.0250
        70        2.0000           -0.4004668             -10.8973
        71        2.0000           -0.3972550             -10.8099
        72        2.0000           -0.3951437             -10.7524
        73        2.0000           -0.3827036             -10.4139
        74        2.0000           -0.3563352              -9.6964
        75        2.0000           -0.3412375              -9.2855 (HOMO)
        76                         -0.2249430              -6.1210 (LUMO)
        77                         -0.1981097              -5.3908
        78                         -0.1785625              -4.8589
        79                         -0.1350262              -3.6743
        80                         -0.0960801              -2.6145
       ...                                ...                  ...
       144                          0.6906429              18.7934
      -------------------------------------------------------------
                  HL-Gap            0.1162945 Eh            3.1645 eV
             Fermi-level           -0.2830902 Eh           -7.7033 eV

 SCC (total)                   0 d,  0 h,  0 min,  0.068 sec
 SCC setup                      ...        0 min,  0.000 sec (  0.371%)
 Dispersion                     ...        0 min,  0.000 sec (  0.647%)
 classical contributions        ...        0 min,  0.000 sec (  0.272%)
 integral evaluation            ...        0 min,  0.006 sec (  9.228%)
 iterations                     ...        0 min,  0.033 sec ( 48.601%)
 molecular gradient             ...        0 min,  0.028 sec ( 40.366%)
 printout                       ...        0 min,  0.000 sec (  0.506%)

         :::::::::::::::::::::::::::::::::::::::::::::::::::::
         ::                     SUMMARY                     ::
         :::::::::::::::::::::::::::::::::::::::::::::::::::::
         :: total energy             -82.138678938772 Eh    ::
         :: gradient norm              1.679428953307 Eh/a0 ::
         :: HOMO-LUMO gap              3.164534268624 eV    ::
         ::.................................................::
         :: SCC energy               -83.387220642569 Eh    ::
         :: -> isotropic ES            0.148224981641 Eh    ::
         :: -> anisotropic ES          0.011202520276 Eh    ::
         :: -> anisotropic XC          0.026567502387 Eh    ::
         :: -> dispersion             -0.061784799433 Eh    ::
         :: repulsion energy           1.079799072256 Eh    ::
         :: add. restraining           0.168084906918 Eh    ::
         :: total charge              -0.000000000000 e     ::
         :::::::::::::::::::::::::::::::::::::::::::::::::::::

      ----------------------------------------------------------- 
     |                   =====================                   |
     |                        A N C O P T                        |
     |                   =====================                   |
     |               Approximate Normal Coordinate               |
     |                Rational Function Optimizer                |
      ----------------------------------------------------------- 

          ...................................................
          :                      SETUP                      :
          :.................................................:
          :   optimization level            normal          :
          :   max. optcycles                   200          :
          :   ANC micro-cycles                  20          :
          :   degrees of freedom               174          :
          :.................................................:
          :   RF solver                   davidson          :
          :   write xtbopt.log                true          :
          :   linear?                        false          :
          :   energy convergence         0.5000000E-05 Eh   :
          :   grad. convergence          0.1000000E-02 Eh/α :
          :   maximium RF displ.         1.0000000          :
          :   Hlow (freq-cutoff)         0.1000000E-01      :
          :   Hmax (freq-cutoff)         5.0000000          :
          :   S6 in model hess.         20.0000000          :
          ...................................................

generating ANC from model Hessian ...
Using Lindh-Hessian (1995)
 Shifting diagonal of input Hessian by   0.19670820088573737     
 Lowest  eigenvalues of input Hessian
    0.010000    0.145512    0.000000    0.000000    0.000000    0.000000
    0.000000    0.000000    0.196830    0.196851    0.197003    0.198391
    0.198597    0.199576    0.200000    0.200072    0.201378    0.201856
 Highest eigenvalues
    1.916476    2.067194    2.114294    2.155796    8.919779    9.117052


........................................................................
.............................. CYCLE    1 ..............................
........................................................................
   1    -83.3872206 -0.833872E+02  0.913E-05    3.16       0.0  T
   2    -83.3872206 -0.169422E-09  0.823E-05    3.16     156.9  T
   3    -83.3872206 -0.412314E-09  0.239E-05    3.16     539.2  T
     SCC iter.                  ...        0 min,  0.009 sec
     gradient                   ...        0 min,  0.029 sec
 * total energy  :   -82.1386789 Eh     change       -0.1745008E-08 Eh
   gradient norm :     1.6794285 Eh/α   predicted     0.0000000E+00 (-100.00%)
   displ. norm   :     0.3109139 α      lambda       -0.5161297E+00
   maximum displ.:     0.2433807 α      in ANC's #174, #173, #127, ...

........................................................................
.............................. CYCLE    2 ..............................
........................................................................
   1    -83.3951729 -0.833952E+02  0.323E-01    3.32       0.0  T
   2    -83.3951237  0.491724E-04  0.260E-01    3.32       1.0  T
   3    -83.3962137 -0.109001E-02  0.142E-01    3.32       1.0  T
   4    -83.3965213 -0.307570E-03  0.288E-02    3.31       1.0  T
   5    -83.3965637 -0.423790E-04  0.650E-03    3.32       2.0  T
   6    -83.3965650 -0.131769E-05  0.310E-03    3.32       4.2  T
   7    -83.3965652 -0.141609E-06  0.887E-04    3.32      14.6  T
   8    -83.3965652 -0.110927E-08  0.341E-04    3.32      37.8  T
     SCC iter.                  ...        0 min,  0.022 sec
     gradient                   ...        0 min,  0.028 sec
 * total energy  :   -82.2674198 Eh     change       -0.1287409E+00 Eh
   gradient norm :     0.8615796 Eh/α   predicted    -0.2830764E+00 ( 119.88%)
   displ. norm   :     0.1063550 α      lambda       -0.8872846E-01
   maximum displ.:     0.0813854 α      in ANC's #174, #173, #37, ...

........................................................................
.............................. CYCLE    3 ..............................
........................................................................
   1    -83.3936922 -0.833937E+02  0.109E-01    3.26       0.0  T
   2    -83.3937023 -0.100227E-04  0.882E-02    3.26       1.0  T
   3    -83.3938548 -0.152493E-03  0.489E-02    3.26       1.0  T
   4    -83.3938840 -0.292293E-04  0.113E-02    3.26       1.1  T
   5    -83.3938903 -0.628338E-05  0.322E-03    3.26       4.0  T
   6    -83.3938908 -0.477276E-06  0.118E-03    3.26      10.9  T
   7    -83.3938908 -0.160504E-07  0.326E-04    3.26      39.6  T
   8    -83.3938908 -0.251745E-09  0.121E-04    3.26     106.4  T
     SCC iter.                  ...        0 min,  0.022 sec
     gradient                   ...        0 min,  0.028 sec
 * total energy  :   -82.3124328 Eh     change       -0.4501300E-01 Eh
   gradient norm :     0.0293408 Eh/α   predicted    -0.4486702E-01 (  -0.32%)
   displ. norm   :     0.0400110 α      lambda       -0.8259978E-03
   maximum displ.:     0.0184622 α      in ANC's #37, #36, #28, ...

........................................................................
.............................. CYCLE    4 ..............................
........................................................................
   1    -83.3937100 -0.833937E+02  0.266E-02    3.26       0.0  T
   2    -83.3937126 -0.259867E-05  0.172E-02    3.26       1.0  T
   3    -83.3937097  0.295599E-05  0.123E-02    3.26       1.0  T
   4    -83.3937157 -0.603502E-05  0.251E-03    3.26       5.1  T
   5    -83.3937160 -0.285394E-06  0.753E-04    3.26      17.2  T
   6    -83.3937160 -0.265748E-07  0.267E-04    3.26      48.4  T
     SCC iter.                  ...        0 min,  0.017 sec
     gradient                   ...        0 min,  0.028 sec
 * total energy  :   -82.3130988 Eh     change       -0.6659204E-03 Eh
   gradient norm :     0.0172778 Eh/α   predicted    -0.4136782E-03 ( -37.88%)
   displ. norm   :     0.1446192 α      lambda       -0.1355385E-02
   maximum displ.:     0.0957868 α      in ANC's #1, #37, #36, ...

........................................................................
.............................. CYCLE    5 ..............................
........................................................................
   1    -83.3928393 -0.833928E+02  0.859E-02    3.27       0.0  T
   2    -83.3928504 -0.111168E-04  0.525E-02    3.27       1.0  T
   3    -83.3927995  0.509042E-04  0.316E-02    3.27       1.0  T
   4    -83.3928579 -0.584050E-04  0.548E-03    3.27       2.4  T
   5    -83.3928595 -0.151533E-05  0.157E-03    3.27       8.2  T
   6    -83.3928595 -0.828907E-07  0.709E-04    3.27      18.2  T
   7    -83.3928595 -0.757905E-08  0.233E-04    3.27      55.5  T
     SCC iter.                  ...        0 min,  0.020 sec
     gradient                   ...        0 min,  0.028 sec
 * total energy  :   -82.3133315 Eh     change       -0.2327139E-03 Eh
   gradient norm :     0.0245823 Eh/α   predicted    -0.6919362E-03 ( 197.33%)
   displ. norm   :     0.3489192 α      lambda       -0.3022048E-02
   maximum displ.:     0.2878158 α      in ANC's #1, #37, #36, ...

........................................................................
.............................. CYCLE    6 ..............................
........................................................................
   1    -83.3890245 -0.833890E+02  0.203E-01    3.26       0.0  T
   2    -83.3890580 -0.335401E-04  0.122E-01    3.27       1.0  T
   3    -83.3888963  0.161752E-03  0.607E-02    3.27       1.0  T
   4    -83.3890804 -0.184165E-03  0.876E-03    3.27       1.5  T
   5    -83.3890840 -0.355285E-05  0.331E-03    3.27       3.9  T
   6    -83.3890843 -0.344553E-06  0.163E-03    3.27       7.9  T
   7    -83.3890844 -0.557251E-07  0.421E-04    3.27      30.7  T
   8    -83.3890844 -0.290045E-08  0.194E-04    3.27      66.6  T
     SCC iter.                  ...        0 min,  0.022 sec
     gradient                   ...        0 min,  0.031 sec
 * total energy  :   -82.3103271 Eh     change        0.3004342E-02 Eh
   gradient norm :     0.0845035 Eh/α   predicted    -0.1695660E-02 (-156.44%)
   displ. norm   :     0.2248631 α      lambda       -0.7469253E-02
   maximum displ.:     0.1772068 α      in ANC's #1, #37, #36, ...

........................................................................
.............................. CYCLE    7 ..............................
........................................................................
   1    -83.3943844 -0.833944E+02  0.134E-01    3.28       0.0  T
   2    -83.3944088 -0.243543E-04  0.809E-02    3.27       1.0  T
   3    -83.3943439  0.649282E-04  0.377E-02    3.27       1.0  T
   4    -83.3944172 -0.733812E-04  0.758E-03    3.27       1.7  T
   5    -83.3944201 -0.285226E-05  0.231E-03    3.27       5.6  T
   6    -83.3944203 -0.158116E-06  0.119E-03    3.27      10.8  T
   7    -83.3944203 -0.342177E-07  0.332E-04    3.27      38.9  T
   8    -83.3944203 -0.114730E-08  0.124E-04    3.27     104.3  T
     SCC iter.                  ...        0 min,  0.022 sec
     gradient                   ...        0 min,  0.028 sec
 * total energy  :   -82.3140051 Eh     change       -0.3677961E-02 Eh
   gradient norm :     0.0328673 Eh/α   predicted    -0.3922681E-02 (   6.65%)
   displ. norm   :     0.0251150 α      lambda       -0.3082661E-03
   maximum displ.:     0.0183141 α      in ANC's #1, #28, #36, ...

........................................................................
.............................. CYCLE    8 ..............................
........................................................................
   1    -83.3949490 -0.833949E+02  0.152E-02    3.28       0.0  T
   2    -83.3949496 -0.603118E-06  0.103E-02    3.28       1.2  T
   3    -83.3949497 -0.338318E-07  0.674E-03    3.28       1.9  T
   4    -83.3949510 -0.135257E-05  0.150E-03    3.28       8.6  T
   5    -83.3949511 -0.108112E-06  0.433E-04    3.28      29.8  T
   6    -83.3949511 -0.920900E-08  0.155E-04    3.28      83.4  T
     SCC iter.                  ...        0 min,  0.016 sec
     gradient                   ...        0 min,  0.028 sec
 * total energy  :   -82.3141809 Eh     change       -0.1758416E-03 Eh
   gradient norm :     0.0120770 Eh/α   predicted    -0.1544341E-03 ( -12.17%)
   displ. norm   :     0.0499851 α      lambda       -0.1977794E-03
   maximum displ.:     0.0261512 α      in ANC's #37, #36, #28, ...

........................................................................
.............................. CYCLE    9 ..............................
........................................................................
   1    -83.3954546 -0.833955E+02  0.244E-02    3.28       0.0  T
   2    -83.3954548 -0.154036E-06  0.146E-02    3.28       1.0  T
   3    -83.3954541  0.673340E-06  0.360E-03    3.28       3.6  T
   4    -83.3954549 -0.747510E-06  0.612E-04    3.28      21.1  T
   5    -83.3954549 -0.175268E-07  0.245E-04    3.28      52.8  T
     SCC iter.                  ...        0 min,  0.014 sec
     gradient                   ...        0 min,  0.028 sec
 * total energy  :   -82.3143520 Eh     change       -0.1710581E-03 Eh
   gradient norm :     0.0116628 Eh/α   predicted    -0.9924887E-04 ( -41.98%)
   displ. norm   :     0.1647725 α      lambda       -0.5218819E-03
   maximum displ.:     0.0837663 α      in ANC's #37, #28, #36, ...

........................................................................
.............................. CYCLE   10 ..............................
........................................................................
   1    -83.3965607 -0.833966E+02  0.794E-02    3.30       0.0  T
   2    -83.3965620 -0.130900E-05  0.473E-02    3.30       1.0  T
   3    -83.3965595  0.254471E-05  0.767E-03    3.30       1.7  T
   4    -83.3965625 -0.301106E-05  0.148E-03    3.30       8.7  T
   5    -83.3965626 -0.744642E-07  0.711E-04    3.30      18.2  T
   6    -83.3965626 -0.464875E-08  0.210E-04    3.30      61.6  T
     SCC iter.                  ...        0 min,  0.017 sec
     gradient                   ...        0 min,  0.028 sec
 * total energy  :   -82.3146427 Eh     change       -0.2907162E-03 Eh
   gradient norm :     0.0060934 Eh/α   predicted    -0.2684587E-03 (  -7.66%)
   displ. norm   :     0.0280995 α      lambda       -0.3914942E-04
   maximum displ.:     0.0165453 α      in ANC's #28, #36, #17, ...

........................................................................
.............................. CYCLE   11 ..............................
........................................................................
   1    -83.3971061 -0.833971E+02  0.127E-02    3.30       0.0  T
   2    -83.3971061 -0.237398E-07  0.754E-03    3.30       1.7  T
   3    -83.3971057  0.388661E-06  0.268E-03    3.30       4.8  T
   4    -83.3971061 -0.422914E-06  0.275E-04    3.30      46.9  T
   5    -83.3971061 -0.210076E-08  0.143E-04    3.30      90.3  T
     SCC iter.                  ...        0 min,  0.014 sec
     gradient                   ...        0 min,  0.028 sec
 * total energy  :   -82.3146742 Eh     change       -0.3148922E-04 Eh
   gradient norm :     0.0033835 Eh/α   predicted    -0.1957582E-04 ( -37.83%)
   displ. norm   :     0.0476491 α      lambda       -0.6763678E-04
   maximum displ.:     0.0295533 α      in ANC's #28, #17, #14, ...

........................................................................
.............................. CYCLE   12 ..............................
........................................................................
   1    -83.3983208 -0.833983E+02  0.200E-02    3.30       0.0  T
   2    -83.3983209 -0.994618E-07  0.121E-02    3.30       1.1  T
   3    -83.3983186  0.235592E-05  0.634E-03    3.30       2.0  T
   4    -83.3983212 -0.257122E-05  0.580E-04    3.30      22.2  T
   5    -83.3983212 -0.133585E-07  0.228E-04    3.30      56.7  T
   6    -83.3983212 -0.630635E-09  0.136E-04    3.30      94.6  T
     SCC iter.                  ...        0 min,  0.017 sec
     gradient                   ...        0 min,  0.027 sec
 * total energy  :   -82.3147181 Eh     change       -0.4394898E-04 Eh
   gradient norm :     0.0033745 Eh/α   predicted    -0.3380171E-04 ( -23.09%)
   displ. norm   :     0.0264366 α      lambda       -0.2655163E-04
   maximum displ.:     0.0156176 α      in ANC's #28, #17, #14, ...

........................................................................
.............................. CYCLE   13 ..............................
........................................................................
   1    -83.3988832 -0.833989E+02  0.103E-02    3.29       0.0  T
   2    -83.3988833 -0.349178E-07  0.626E-03    3.29       2.1  T
   3    -83.3988825  0.734483E-06  0.352E-03    3.29       3.7  T
   4    -83.3988833 -0.807199E-06  0.385E-04    3.29      33.5  T
   5    -83.3988833 -0.681420E-08  0.123E-04    3.29     104.7  T
     SCC iter.                  ...        0 min,  0.014 sec
     gradient                   ...        0 min,  0.028 sec
 * total energy  :   -82.3147382 Eh     change       -0.2001784E-04 Eh
   gradient norm :     0.0034493 Eh/α   predicted    -0.1328511E-04 ( -33.63%)
   displ. norm   :     0.0323101 α      lambda       -0.3014633E-04
   maximum displ.:     0.0162838 α      in ANC's #28, #17, #14, ...

........................................................................
.............................. CYCLE   14 ..............................
........................................................................
   1    -83.3991630 -0.833992E+02  0.122E-02    3.29       0.0  T
   2    -83.3991631 -0.477373E-07  0.734E-03    3.29       1.8  T
   3    -83.3991623  0.773854E-06  0.367E-03    3.29       3.5  T
   4    -83.3991632 -0.849265E-06  0.452E-04    3.29      28.6  T
   5    -83.3991632 -0.942075E-08  0.186E-04    3.29      69.3  T
     SCC iter.                  ...        0 min,  0.015 sec
     gradient                   ...        0 min,  0.028 sec
 * total energy  :   -82.3147590 Eh     change       -0.2080428E-04 Eh
   gradient norm :     0.0023564 Eh/α   predicted    -0.1508735E-04 ( -27.48%)
   displ. norm   :     0.0229234 α      lambda       -0.1793566E-04
   maximum displ.:     0.0090922 α      in ANC's #37, #17, #36, ...

........................................................................
.............................. CYCLE   15 ..............................
........................................................................
   1    -83.3989375 -0.833989E+02  0.848E-03    3.28       0.0  T
   2    -83.3989375 -0.353127E-07  0.505E-03    3.28       2.6  T
   3    -83.3989373  0.276912E-06  0.240E-03    3.28       5.4  T
   4    -83.3989376 -0.313555E-06  0.236E-04    3.28      54.8  T
   5    -83.3989376 -0.174444E-08  0.167E-04    3.28      77.4  T
     SCC iter.                  ...        0 min,  0.014 sec
     gradient                   ...        0 min,  0.028 sec
 * total energy  :   -82.3147717 Eh     change       -0.1277829E-04 Eh
   gradient norm :     0.0016950 Eh/α   predicted    -0.8985980E-05 ( -29.68%)
   displ. norm   :     0.0287073 α      lambda       -0.1325555E-04
   maximum displ.:     0.0111787 α      in ANC's #17, #37, #36, ...

........................................................................
.............................. CYCLE   16 ..............................
........................................................................
   1    -83.3982444 -0.833982E+02  0.993E-03    3.28       0.0  T
   2    -83.3982444 -0.792152E-07  0.596E-03    3.28       2.2  T
   3    -83.3982440  0.388651E-06  0.302E-03    3.28       4.3  T
   4    -83.3982445 -0.454656E-06  0.294E-04    3.28      44.0  T
   5    -83.3982445 -0.307637E-08  0.140E-04    3.28      92.0  T
     SCC iter.                  ...        0 min,  0.014 sec
     gradient                   ...        0 min,  0.028 sec
 * total energy  :   -82.3147830 Eh     change       -0.1122498E-04 Eh
   gradient norm :     0.0020125 Eh/α   predicted    -0.6637226E-05 ( -40.87%)
   displ. norm   :     0.0075173 α      lambda       -0.6538040E-05
   maximum displ.:     0.0032633 α      in ANC's #6, #66, #17, ...

........................................................................
.............................. CYCLE   17 ..............................
........................................................................
   1    -83.3980940 -0.833981E+02  0.277E-03    3.28       0.0  T
   2    -83.3980940 -0.647476E-08  0.168E-03    3.28       7.7  T
   3    -83.3980940  0.188016E-07  0.616E-04    3.28      21.0  T
   4    -83.3980940 -0.204806E-07  0.149E-04    3.28      86.7  T
     SCC iter.                  ...        0 min,  0.011 sec
     gradient                   ...        0 min,  0.028 sec
 * total energy  :   -82.3147887 Eh     change       -0.5690876E-05 Eh
   gradient norm :     0.0015540 Eh/α   predicted    -0.3274377E-05 ( -42.46%)
   displ. norm   :     0.0443532 α      lambda       -0.1840266E-04
   maximum displ.:     0.0214039 α      in ANC's #6, #17, #14, ...

........................................................................
.............................. CYCLE   18 ..............................
........................................................................
   1    -83.3977243 -0.833977E+02  0.137E-02    3.28       0.0  T
   2    -83.3977244 -0.965273E-07  0.823E-03    3.28       1.6  T
   3    -83.3977243  0.100658E-06  0.159E-03    3.28       8.1  T
   4    -83.3977244 -0.122641E-06  0.345E-04    3.28      37.4  T
   5    -83.3977244 -0.320316E-08  0.193E-04    3.28      67.1  T
     SCC iter.                  ...        0 min,  0.014 sec
     gradient                   ...        0 min,  0.028 sec
 * total energy  :   -82.3147994 Eh     change       -0.1073642E-04 Eh
   gradient norm :     0.0019196 Eh/α   predicted    -0.9217711E-05 ( -14.15%)
   displ. norm   :     0.0052803 α      lambda       -0.3797255E-05
   maximum displ.:     0.0026720 α      in ANC's #66, #6, #109, ...

........................................................................
.............................. CYCLE   19 ..............................
........................................................................
   1    -83.3980656 -0.833981E+02  0.314E-03    3.28       0.0  T
   2    -83.3980656 -0.115442E-07  0.194E-03    3.28       6.6  T
   3    -83.3980656  0.540315E-07  0.107E-03    3.28      12.0  T
   4    -83.3980656 -0.616287E-07  0.220E-04    3.28      58.6  T
   5    -83.3980656 -0.256613E-08  0.509E-05    3.28     253.6  T
     SCC iter.                  ...        0 min,  0.014 sec
     gradient                   ...        0 min,  0.028 sec
 * total energy  :   -82.3148038 Eh     change       -0.4447997E-05 Eh
   gradient norm :     0.0009464 Eh/α   predicted    -0.1900896E-05 ( -57.26%)
   displ. norm   :     0.0165903 α      lambda       -0.5784749E-05
   maximum displ.:     0.0101913 α      in ANC's #6, #10, #14, ...

   *** GEOMETRY OPTIMIZATION CONVERGED AFTER 19 ITERATIONS ***

------------------------------------------------------------------------
 total energy gain   :        -0.1761249 Eh     -110.5200 kcal/mol
 total RMSD          :         0.0780410 a0        0.0413 Å
 total power (kW/mol):       -24.3376769 (step) -454.6280 (real)
------------------------------------------------------------------------

 ANCopt (total)                0 d,  0 h,  0 min,  1.017 sec
 optimizer setup                ...        0 min,  0.000 sec (  0.009%)
 model hessian                  ...        0 min,  0.033 sec (  3.226%)
 ANC generation                 ...        0 min,  0.003 sec (  0.268%)
 coordinate transformation      ...        0 min,  0.000 sec (  0.027%)
 single point calculation       ...        0 min,  0.974 sec ( 95.772%)
 optimization log               ...        0 min,  0.004 sec (  0.402%)
 hessian update                 ...        0 min,  0.000 sec (  0.043%)
 rational function              ...        0 min,  0.002 sec (  0.175%)

================
 final structure:
================
60
 xtb: 6.5.0 (homebrew)
C            3.47229080877474      -37.74608085641981       15.90113501774507
C            3.72359015576158      -38.13707449579262       17.35554259748968
O            3.25493910406422      -37.09437912761378       18.21195062161487
C            2.90637778034393      -39.39190203847234       17.68698822816053
C            5.23765373001617      -38.27004453559719       17.75698155730607
C            5.75984423645121      -39.70190566280840       17.84432701150928
C            6.16680007590424      -37.44815182203452       16.85510118666437
O            5.28268788903201      -37.66660940993930       19.05166203399573
B            4.15459026481835      -36.91970083051849       19.22746683402311
C            3.90696885709210      -35.96025384957085       20.43829324376636
C            4.92439729357873      -35.93773110571503       21.48176188541365
C            4.94195137519209      -35.18528834887469       22.58789618082813
H            5.82984768955747      -35.22834886686368       23.20790170147152
C            3.86000137273077      -34.27937477384373       23.06101616594532
H            4.09334894293053      -33.88163917027723       24.04901786512015
C            2.47991229969309      -34.88260637521703       23.11546898242179
B            1.73238718974637      -34.88106789399244       24.48278439492274
O            2.23503058259458      -34.35900799742775       25.64361532163474
C            1.36473053530024      -34.70866661868901       26.71906934406096
C            1.21454845147114      -33.51978193676778       27.66559261684796
C            2.03148818860677      -35.86766703641837       27.47141547471928
C            0.04398231744581      -35.13957003039564       25.98324689626325
C           -0.97803386334371      -34.00086576602844       25.87164673817437
C           -0.64564644731064      -36.37174501602420       26.56526963076351
O            0.49108300010073      -35.42837721640390       24.66011804617145
C            1.90278252012804      -35.45069584713580       22.05213762951986
C            2.45080069066663      -35.58103271543546       20.70095071509827
H            1.76979627340604      -36.07129958440370       20.01401915496739
C            3.28982307915306      -34.52691373800753       20.04462435566987
C            3.83640003684154      -33.36259656080404       20.70935147527428
C            4.12483047246066      -33.25970848774232       22.01252677053112
H            4.61793896649010      -32.35390257000097       22.34569427061554
H            2.39955274238656      -37.69996912816326       15.73015299649139
H            3.90364809134643      -38.48576953675519       15.23241843803888
H            3.88984433321846      -36.76925632335630       15.67947656767453
H            1.85225981448223      -39.16740513791444       17.54073830246184
H            3.04930656588422      -39.67081758348233       18.72792898949652
H            3.18330299006057      -40.22076066130078       17.04244622508075
H            5.65557797728076      -40.19977305919250       16.88406418553456
H            5.23181542034420      -40.26701513885597       18.60540843814380
H            6.81252191195002      -39.67606965881078       18.11460252949787
H            6.21657757419789      -37.86716752476627       15.85471398699282
H            7.16283072059150      -37.45205796185179       17.29163988546242
H            5.82682746025850      -36.41661207003396       16.80667107136980
H            5.79952942896268      -36.52835767141350       21.24314067423490
H            2.17519353772065      -33.31605490011121       28.13215432036569
H            0.48885116367342      -33.74848039230631       28.44158779790466
H            0.90427572095043      -32.62801752246956       27.13080693299950
H            3.01233197680793      -35.54158966348457       27.80989389967678
H            2.17121634210875      -36.71576683519486       26.80577852243762
H            1.44225159161119      -36.16803752833523       28.33267182970037
H           -1.39657825098794      -33.75170500823918       26.84217131786258
H           -1.78045773630177      -34.32277504775968       25.21182333177809
H           -0.51545442800058      -33.12102226714160       25.43170530176785
H           -0.91420909528881      -36.19833671146147       27.60380215899693
H           -0.00819747687358      -37.24710788707156       26.49565239863221
H           -1.55054196284777      -36.56879827193810       25.99581459713649
H            0.91569269121549      -35.87387489892139       22.18739463404291
H            3.12411423521825      -34.41307762625919       18.98143072474350
H            4.13452279033161      -32.55729369817321       20.04924599276421

 Bond Distances (Angstroems)
 ---------------------------
C1-C2=1.5269         C1-H33=1.0873        C1-H34=1.0865        C1-H35=1.0852        C2-C1=1.5269         C2-O3=1.4284         
C2-C4=1.5337         C2-C5=1.5720         O3-C2=1.4284         O3-B9=1.3679         C4-C2=1.5337         C4-H36=1.0876        
C4-H37=1.0871        C4-H38=1.0859        C5-C2=1.5720         C5-C6=1.5266         C5-C7=1.5337         C5-O8=1.4291         
C6-C5=1.5266         C6-H39=1.0867        C6-H40=1.0851        C6-H41=1.0871        C7-C5=1.5337         C7-H42=1.0857        
C7-H43=1.0875        C7-H44=1.0872        O8-C5=1.4291         O8-B9=1.3643         B9-O3=1.3679         B9-O8=1.3643         
B9-C10=1.5646        C10-B9=1.5646        C10-C11=1.4576       C10-C27=1.5275       C10-C29=1.6094       C11-C10=1.4576       
C11-C12=1.3379       C11-H45=1.0824       C12-C11=1.3379       C12-H13=1.0838       C12-C14=1.4883       H13-C12=1.0838       
C14-C12=1.4883       C14-H15=1.0903       C14-C16=1.5071       C14-C31=1.4863       H15-C14=1.0903       C16-C14=1.5071       
C16-B17=1.5583       C16-C26=1.3366       B17-C16=1.5583       B17-O18=1.3685       B17-O25=1.3681       O18-B17=1.3685       
O18-C19=1.4270       C19-O18=1.4270       C19-C20=1.5271       C19-C21=1.5342       C19-C22=1.5721       C20-C19=1.5271       
C20-H46=1.0872       C20-H47=1.0868       C20-H48=1.0851       C21-C19=1.5342       C21-H49=1.0876       C21-H50=1.0871       
C21-H51=1.0859       C22-C19=1.5721       C22-C23=1.5342       C22-C24=1.5273       C22-O25=1.4262       C23-C22=1.5342       
C23-H52=1.0859       C23-H53=1.0876       C23-H54=1.0870       C24-C22=1.5273       C24-H55=1.0866       C24-H56=1.0851       
C24-H57=1.0872       O25-B17=1.3681       O25-C22=1.4262       C26-C16=1.3366       C26-C27=1.4639       C26-H58=1.0825       
C27-C10=1.5275       C27-C26=1.4639       C27-H28=1.0844       C27-C29=1.4986       H28-C27=1.0844       C29-C10=1.6094       
C29-C27=1.4986       C29-C30=1.4478       C29-H59=1.0820       C30-C29=1.4478       C30-C31=1.3387       C30-H60=1.0831       
C31-C14=1.4863       C31-C30=1.3387       C31-H32=1.0838       H32-C31=1.0838       H33-C1=1.0873        H34-C1=1.0865        
H35-C1=1.0852        H36-C4=1.0876        H37-C4=1.0871        H38-C4=1.0859        H39-C6=1.0867        H40-C6=1.0851        
H41-C6=1.0871        H42-C7=1.0857        H43-C7=1.0875        H44-C7=1.0872        H45-C11=1.0824       H46-C20=1.0872       
H47-C20=1.0868       H48-C20=1.0851       H49-C21=1.0876       H50-C21=1.0871       H51-C21=1.0859       H52-C23=1.0859       
H53-C23=1.0876       H54-C23=1.0870       H55-C24=1.0866       H56-C24=1.0851       H57-C24=1.0872       H58-C26=1.0825       
H59-C29=1.0820       H60-C30=1.0831       
 C  H  Rav=1.0860 sigma=0.0018  Rmin=1.0820  Rmax=1.0903    32
 C  B  Rav=1.5615 sigma=0.0031  Rmin=1.5583  Rmax=1.5646     2
 C  C  Rav=1.4949 sigma=0.0724  Rmin=1.3366  Rmax=1.6094    22
 O  B  Rav=1.3672 sigma=0.0017  Rmin=1.3643  Rmax=1.3685     4
 O  C  Rav=1.4277 sigma=0.0011  Rmin=1.4262  Rmax=1.4291     4

 selected bond angles (degree)
 --------------------
H33-C1-C2=108.85               H34-C1-C2=110.28               H34-C1-H33=108.89              H35-C1-C2=111.21               
H35-C1-H33=108.02              H35-C1-H34=109.53              O3-C2-C1=109.28                C4-C2-C1=109.13                
C4-C2-O3=107.03                C5-C2-C1=115.05                C5-C2-O3=102.98                C5-C2-C4=112.88                
B9-O3-C2=108.82                H36-C4-C2=108.57               H37-C4-C2=110.29               H37-C4-H36=108.01              
H38-C4-C2=111.12               H38-C4-H36=108.96              H38-C4-H37=109.82              C6-C5-C2=115.05                
C7-C5-C2=112.83                C7-C5-C6=109.21                O8-C5-C2=103.06                O8-C5-C6=109.48                
O8-C5-C7=106.70                H39-C6-C5=110.26               H40-C6-C5=111.23               H40-C6-H39=109.54              
H41-C6-C5=108.85               H41-C6-H39=108.87              H41-C6-H40=108.01              H42-C7-C5=111.27               
H43-C7-C5=108.48               H43-C7-H42=109.06              H44-C7-C5=110.19               H44-C7-H42=109.84              
H44-C7-H43=107.92              B9-O8-C5=108.77                O8-B9-O3=112.22                C10-B9-O3=123.28               
C10-B9-O8=124.49               C11-C10-B9=116.94              C27-C10-B9=115.86              C27-C10-C11=122.58             
C29-C10-B9=114.68              C29-C10-C11=115.40             C29-C10-C27= 57.00             

 selected dihedral angles (degree)
 ---------------------------------
O3-C2-C1-H33=294.26           O3-C2-C1-H34=174.86           O3-C2-C1-H35= 53.15           C4-C2-C1-H33= 50.98           
C4-C2-C1-H34=291.59           C4-C2-C1-H35=169.87           C5-C2-C1-H33=179.03           C5-C2-C1-H34= 59.64           
C5-C2-C1-H35=297.92           B9-O3-C2-C1=220.81            B9-O3-C2-C4=102.77            B9-O3-C2-C5=343.57            
H36-C4-C2-C1=299.78           H36-C4-C2-O3= 57.93           H36-C4-C2-C5=170.52           H37-C4-C2-C1=181.62           
H37-C4-C2-O3=299.77           H37-C4-C2-C5= 52.36           H38-C4-C2-C1= 59.60           H38-C4-C2-O3=177.74           
H38-C4-C2-C5=290.34           C6-C5-C2-C1=257.92            C6-C5-C2-O3=139.12            C6-C5-C2-C4= 24.07            
C7-C5-C2-C1= 24.14            C7-C5-C2-O3=265.34            C7-C5-C2-C4=150.28            O8-C5-C2-C1=138.83            
O8-C5-C2-O3= 20.03            O8-C5-C2-C4=264.97            H39-C6-C5-C2= 59.92           H39-C6-C5-C7=291.87           
H39-C6-C5-O8=175.38           H40-C6-C5-C2=298.19           H40-C6-C5-C7=170.13           H40-C6-C5-O8= 53.64           
H41-C6-C5-C2=179.29           H41-C6-C5-C7= 51.24           H41-C6-C5-O8=294.75           H42-C7-C5-C2=290.39           
H42-C7-C5-C6= 59.67           H42-C7-C5-O8=177.92           H43-C7-C5-C2=170.43           H43-C7-C5-C6=299.71           
H43-C7-C5-O8= 57.95           H44-C7-C5-C2= 52.49           H44-C7-C5-C6=181.77           H44-C7-C5-O8=300.01           
B9-O8-C5-C2=343.11            B9-O8-C5-C6=220.21            B9-O8-C5-C7=102.15            O8-B9-O3-C2=  6.74            
C10-B9-O3-C2=186.27           O3-B9-O8-C5=  7.51            C10-B9-O8-C5=187.99           C11-C10-B9-O3=176.56          
C11-C10-B9-O8=356.03          C27-C10-B9-O3= 19.98          C27-C10-B9-O8=199.46          C29-C10-B9-O3=316.30          
C29-C10-B9-O8=135.77          
           -------------------------------------------------
          |                Final Singlepoint                |
           -------------------------------------------------

          ...................................................
          :                      SETUP                      :
          :.................................................:
          :  # basis functions                 144          :
          :  # atomic orbitals                 144          :
          :  # shells                           88          :
          :  # electrons                       150          :
          :  max. iterations                   250          :
          :  Hamiltonian                  GFN2-xTB          :
          :  restarted?                      false          :
          :  GBSA solvation                  false          :
          :  PC potential                    false          :
          :  electronic temp.          300.0000000     K    :
          :  accuracy                    1.0000000          :
          :  -> integral cutoff          0.2500000E+02      :
          :  -> integral neglect         0.1000000E-07      :
          :  -> SCF convergence          0.1000000E-05 Eh   :
          :  -> wf. convergence          0.1000000E-03 e    :
          :  Broyden damping             0.4000000          :
          ...................................................

 iter      E             dE          RMSdq      gap      omega  full diag
   1    -83.3980656 -0.833981E+02  0.336E-05    3.28       0.0  T
   2    -83.3980656 -0.359535E-11  0.237E-05    3.28     543.9  T
   3    -83.3980656 -0.217142E-10  0.131E-05    3.28     983.4  T

   *** convergence criteria satisfied after 3 iterations ***

         #    Occupation            Energy/Eh            Energy/eV
      -------------------------------------------------------------
         1        2.0000           -0.6930202             -18.8580
       ...           ...                  ...                  ...
        69        2.0000           -0.4040301             -10.9942
        70        2.0000           -0.4011338             -10.9154
        71        2.0000           -0.3979578             -10.8290
        72        2.0000           -0.3949610             -10.7474
        73        2.0000           -0.3834080             -10.4331
        74        2.0000           -0.3565899              -9.7033
        75        2.0000           -0.3440560              -9.3622 (HOMO)
        76                         -0.2235514              -6.0831 (LUMO)
        77                         -0.1945893              -5.2950
        78                         -0.1784941              -4.8571
        79                         -0.1418728              -3.8606
        80                         -0.0951960              -2.5904
       ...                                ...                  ...
       144                          0.6854295              18.6515
      -------------------------------------------------------------
                  HL-Gap            0.1205047 Eh            3.2791 eV
             Fermi-level           -0.2838037 Eh           -7.7227 eV

 SCC (total)                   0 d,  0 h,  0 min,  0.043 sec
 SCC setup                      ...        0 min,  0.000 sec (  0.535%)
 Dispersion                     ...        0 min,  0.000 sec (  0.871%)
 classical contributions        ...        0 min,  0.000 sec (  0.400%)
 integral evaluation            ...        0 min,  0.006 sec ( 13.915%)
 iterations                     ...        0 min,  0.008 sec ( 19.643%)
 molecular gradient             ...        0 min,  0.028 sec ( 63.841%)
 printout                       ...        0 min,  0.000 sec (  0.785%)

         :::::::::::::::::::::::::::::::::::::::::::::::::::::
         ::                     SUMMARY                     ::
         :::::::::::::::::::::::::::::::::::::::::::::::::::::
         :: total energy             -82.314803838699 Eh    ::
         :: gradient norm              0.000946901233 Eh/a0 ::
         :: HOMO-LUMO gap              3.279098544186 eV    ::
         ::.................................................::
         :: SCC energy               -83.398065614296 Eh    ::
         :: -> isotropic ES            0.148190988784 Eh    ::
         :: -> anisotropic ES          0.011139560778 Eh    ::
         :: -> anisotropic XC          0.026711329662 Eh    ::
         :: -> dispersion             -0.061964428012 Eh    ::
         :: repulsion energy           1.082525094795 Eh    ::
         :: add. restraining           0.000074353711 Eh    ::
         :: total charge              -0.000000000000 e     ::
         :::::::::::::::::::::::::::::::::::::::::::::::::::::

           -------------------------------------------------
          |                Property Printout                |
           -------------------------------------------------

    * Orbital Energies and Occupations

         #    Occupation            Energy/Eh            Energy/eV
      -------------------------------------------------------------
         1        2.0000           -0.6930202             -18.8580
       ...           ...                  ...                  ...
        63        2.0000           -0.4357841             -11.8583
        64        2.0000           -0.4345740             -11.8254
        65        2.0000           -0.4296542             -11.6915
        66        2.0000           -0.4236057             -11.5269
        67        2.0000           -0.4183121             -11.3829
        68        2.0000           -0.4123710             -11.2212
        69        2.0000           -0.4040301             -10.9942
        70        2.0000           -0.4011338             -10.9154
        71        2.0000           -0.3979578             -10.8290
        72        2.0000           -0.3949610             -10.7474
        73        2.0000           -0.3834080             -10.4331
        74        2.0000           -0.3565899              -9.7033
        75        2.0000           -0.3440560              -9.3622 (HOMO)
        76                         -0.2235514              -6.0831 (LUMO)
        77                         -0.1945893              -5.2950
        78                         -0.1784941              -4.8571
        79                         -0.1418728              -3.8606
        80                         -0.0951960              -2.5904
        81                          0.0026554               0.0723
        82                          0.0085825               0.2335
        83                          0.0115300               0.3137
        84                          0.0250843               0.6826
        85                          0.0306710               0.8346
        86                          0.0531383               1.4460
       ...                                ...                  ...
       144                          0.6854295              18.6515
      -------------------------------------------------------------
                  HL-Gap            0.1205047 Eh            3.2791 eV
             Fermi-level           -0.2838037 Eh           -7.7227 eV

     #   Z          covCN         q      C6AA      α(0)
     1   6 C        3.755    -0.117    22.802     6.809
     2   6 C        3.858     0.130    18.443     6.108
     3   8 O        1.638    -0.378    20.430     6.101
     4   6 C        3.755    -0.117    22.787     6.807
     5   6 C        3.861     0.129    18.449     6.108
     6   6 C        3.755    -0.118    22.813     6.810
     7   6 C        3.755    -0.116    22.782     6.806
     8   8 O        1.638    -0.371    20.303     6.082
     9   5 B        2.658     0.440    15.472     6.623
    10   6 C        3.821    -0.062    21.669     6.625
    11   6 C        2.891    -0.049    29.221     8.863
    12   6 C        3.070    -0.029    28.649     8.776
    13   1 H        0.925     0.024     2.681     2.560
    14   6 C        3.867    -0.015    20.799     6.485
    15   1 H        0.924     0.043     2.408     2.427
    16   6 C        2.865    -0.085    30.121     8.996
    17   5 B        2.661     0.431    15.562     6.641
    18   8 O        1.638    -0.371    20.312     6.084
    19   6 C        3.859     0.129    18.454     6.109
    20   6 C        3.755    -0.117    22.793     6.807
    21   6 C        3.755    -0.116    22.772     6.804
    22   6 C        3.859     0.129    18.452     6.109
    23   6 C        3.755    -0.116    22.778     6.805
    24   6 C        3.755    -0.117    22.800     6.808
    25   8 O        1.638    -0.373    20.346     6.089
    26   6 C        2.896    -0.027    28.683     8.781
    27   6 C        3.861    -0.013    20.763     6.480
    28   1 H        0.925     0.042     2.428     2.437
    29   6 C        3.850    -0.009    20.707     6.472
    30   6 C        2.889    -0.047    29.157     8.853
    31   6 C        3.071    -0.026    28.574     8.765
    32   1 H        0.925     0.024     2.669     2.555
    33   1 H        0.925     0.055     2.258     2.350
    34   1 H        0.925     0.041     2.442     2.444
    35   1 H        0.925     0.052     2.296     2.370
    36   1 H        0.925     0.053     2.287     2.365
    37   1 H        0.925     0.044     2.393     2.419
    38   1 H        0.925     0.043     2.404     2.425
    39   1 H        0.925     0.041     2.437     2.441
    40   1 H        0.925     0.053     2.284     2.363
    41   1 H        0.925     0.056     2.251     2.346
    42   1 H        0.925     0.044     2.402     2.424
    43   1 H        0.925     0.053     2.278     2.360
    44   1 H        0.925     0.043     2.403     2.424
    45   1 H        0.925     0.032     2.557     2.501
    46   1 H        0.925     0.054     2.272     2.357
    47   1 H        0.925     0.039     2.460     2.453
    48   1 H        0.925     0.052     2.299     2.371
    49   1 H        0.925     0.052     2.297     2.370
    50   1 H        0.925     0.043     2.403     2.424
    51   1 H        0.925     0.042     2.425     2.435
    52   1 H        0.925     0.042     2.420     2.433
    53   1 H        0.925     0.052     2.297     2.370
    54   1 H        0.925     0.044     2.401     2.423
    55   1 H        0.925     0.039     2.457     2.451
    56   1 H        0.925     0.052     2.299     2.371
    57   1 H        0.925     0.054     2.272     2.357
    58   1 H        0.925     0.037     2.486     2.466
    59   1 H        0.925     0.034     2.527     2.486
    60   1 H        0.925     0.022     2.700     2.569

 Mol. C6AA /au·bohr⁶  :      32801.809317
 Mol. C8AA /au·bohr⁸  :     759349.268954
 Mol. α(0) /au        :        273.154078


Wiberg/Mayer (AO) data.
largest (>0.10) Wiberg bond orders for each atom

 ---------------------------------------------------------------------------
     #   Z sym  total        # sym  WBO       # sym  WBO       # sym  WBO
 ---------------------------------------------------------------------------
     1   6 C    3.994 --     2 C    0.997    34 H    0.984    33 H    0.982
                            35 H    0.982
     2   6 C    3.942 --     1 C    0.997     4 C    0.991     3 O    0.950
                             5 C    0.937
     3   8 O    2.226 --     9 B    1.127     2 C    0.950
     4   6 C    3.994 --     2 C    0.991    38 H    0.984    37 H    0.984
                            36 H    0.983
     5   6 C    3.941 --     6 C    0.997     7 C    0.991     8 O    0.949
                             2 C    0.937
     6   6 C    3.994 --     5 C    0.997    39 H    0.984    41 H    0.982
                            40 H    0.982
     7   6 C    3.995 --     5 C    0.991    42 H    0.984    44 H    0.984
                            43 H    0.983
     8   8 O    2.234 --     9 B    1.137     5 C    0.949
     9   5 B    3.377 --     8 O    1.137     3 O    1.127    10 C    0.997
    10   6 C    3.927 --    11 C    1.111     9 B    0.997    27 C    0.871
                            29 C    0.767
    11   6 C    3.989 --    12 C    1.794    10 C    1.111    45 H    0.964
    12   6 C    3.985 --    11 C    1.794    14 C    0.971    13 H    0.968
                            31 C    0.103
    13   1 H    0.999 --    12 C    0.968
    14   6 C    3.992 --    16 C    0.984    31 C    0.978    12 C    0.971
                            15 H    0.970
    15   1 H    0.998 --    14 C    0.970
    16   6 C    3.976 --    26 C    1.815    17 B    1.004    14 C    0.984
    17   5 B    3.376 --    18 O    1.126    25 O    1.126    16 C    1.004
    18   8 O    2.232 --    17 B    1.126    19 C    0.954
    19   6 C    3.943 --    20 C    0.997    21 C    0.991    18 O    0.954
                            22 C    0.936
    20   6 C    3.994 --    19 C    0.997    47 H    0.985    46 H    0.983
                            48 H    0.982
    21   6 C    3.994 --    19 C    0.991    51 H    0.984    50 H    0.984
                            49 H    0.983
    22   6 C    3.943 --    24 C    0.996    23 C    0.990    25 O    0.954
                            19 C    0.936
    23   6 C    3.995 --    22 C    0.990    52 H    0.985    54 H    0.984
                            53 H    0.983
    24   6 C    3.994 --    22 C    0.996    55 H    0.985    57 H    0.983
                            56 H    0.982
    25   8 O    2.230 --    17 B    1.126    22 C    0.954
    26   6 C    3.989 --    16 C    1.815    27 C    1.066    58 H    0.965
    27   6 C    3.956 --    26 C    1.066    28 H    0.969    29 C    0.925
                            10 C    0.871
    28   1 H    0.998 --    27 C    0.969
    29   6 C    3.947 --    30 C    1.124    59 H    0.972    27 C    0.925
                            10 C    0.767
    30   6 C    3.987 --    31 C    1.782    29 C    1.124    60 H    0.966
    31   6 C    3.981 --    30 C    1.782    14 C    0.978    32 H    0.969
                            12 C    0.103
    32   1 H    0.999 --    31 C    0.969
    33   1 H    0.997 --     1 C    0.982
    34   1 H    0.998 --     1 C    0.984
    35   1 H    0.997 --     1 C    0.982
    36   1 H    0.997 --     4 C    0.983
    37   1 H    0.998 --     4 C    0.984
    38   1 H    0.998 --     4 C    0.984
    39   1 H    0.998 --     6 C    0.984
    40   1 H    0.997 --     6 C    0.982
    41   1 H    0.997 --     6 C    0.982
    42   1 H    0.998 --     7 C    0.984
    43   1 H    0.997 --     7 C    0.983
    44   1 H    0.998 --     7 C    0.984
    45   1 H    0.999 --    11 C    0.964
    46   1 H    0.997 --    20 C    0.983
    47   1 H    0.998 --    20 C    0.985
    48   1 H    0.997 --    20 C    0.982
    49   1 H    0.997 --    21 C    0.983
    50   1 H    0.998 --    21 C    0.984
    51   1 H    0.998 --    21 C    0.984
    52   1 H    0.998 --    23 C    0.985
    53   1 H    0.997 --    23 C    0.983
    54   1 H    0.998 --    23 C    0.984
    55   1 H    0.998 --    24 C    0.985
    56   1 H    0.997 --    24 C    0.982
    57   1 H    0.997 --    24 C    0.983
    58   1 H    0.998 --    26 C    0.965
    59   1 H    0.998 --    29 C    0.972
    60   1 H    0.999 --    30 C    0.966
 ---------------------------------------------------------------------------

Topologies differ in total number of bonds
Writing topology from bond orders to xtbtopo.mol

molecular dipole:
                 x           y           z       tot (Debye)
 q only:       -0.255      -0.543      -0.164
   full:       -0.240      -0.630      -0.223       1.806
molecular quadrupole (traceless):
                xx          xy          yy          xz          yz          zz
 q only:      -42.909      17.857      74.584     -30.100      -6.731     -31.675
  q+dip:      -47.306      17.005      86.107     -29.814      -3.943     -38.801
   full:      -47.588      16.068      87.737     -30.984      -5.340     -40.149

           -------------------------------------------------
          |                Geometry Summary                 |
           -------------------------------------------------

      molecular mass/u    :      382.1099696
   center of mass at/Å    :        2.9493091     -35.9359727      21.8331757
  moments of inertia/u·Å² :        0.1172189E+04   0.6836880E+04   0.7136066E+04
rotational constants/cm⁻¹ :        0.1438133E-01   0.2465691E-02   0.2362315E-02

 * 60 selected distances

     #   Z          #   Z                                           value/Å
     1   6 C        2   6 C                                       1.5268691
     2   6 C        3   8 O                                       1.4283846
     2   6 C        4   6 C                                       1.5337160
     5   6 C        6   6 C                                       1.5266103
     5   6 C        7   6 C                                       1.5336914
     5   6 C        8   8 O                                       1.4291116
     3   8 O        9   5 B                                       1.3679029
     8   8 O        9   5 B                                       1.3643256
     9   5 B       10   6 C                                       1.5645945 (max)
    10   6 C       11   6 C                                       1.4575648
    11   6 C       12   6 C                                       1.3379132
    12   6 C       13   1 H                                       1.0837994
    12   6 C       14   6 C                                       1.4883340
    14   6 C       15   1 H                                       1.0903175
    16   6 C       17   5 B                                       1.5583158
    17   5 B       18   8 O                                       1.3684757
    18   8 O       19   6 C                                       1.4269846
    19   6 C       20   6 C                                       1.5270587
    19   6 C       21   6 C                                       1.5342336
    22   6 C       23   6 C                                       1.5341511
    22   6 C       24   6 C                                       1.5272832
    17   5 B       25   8 O                                       1.3681488
    22   6 C       25   8 O                                       1.4261763
    16   6 C       26   6 C                                       1.3365921
    10   6 C       27   6 C                                       1.5274894
    26   6 C       27   6 C                                       1.4639051
    27   6 C       28   1 H                                       1.0844371
    27   6 C       29   6 C                                       1.4986294
    29   6 C       30   6 C                                       1.4478409
    14   6 C       31   6 C                                       1.4863325
    30   6 C       31   6 C                                       1.3386726
    31   6 C       32   1 H                                       1.0838086
     1   6 C       33   1 H                                       1.0872572
     1   6 C       34   1 H                                       1.0864578
     1   6 C       35   1 H                                       1.0852050
     4   6 C       36   1 H                                       1.0876363
     4   6 C       37   1 H                                       1.0870972
     4   6 C       38   1 H                                       1.0858770
     6   6 C       39   1 H                                       1.0866684
     6   6 C       40   1 H                                       1.0850845
     6   6 C       41   1 H                                       1.0871278
     7   6 C       42   1 H                                       1.0857379
     7   6 C       43   1 H                                       1.0875011
     7   6 C       44   1 H                                       1.0871988
    11   6 C       45   1 H                                       1.0824215
    20   6 C       46   1 H                                       1.0872091
    20   6 C       47   1 H                                       1.0867881
    20   6 C       48   1 H                                       1.0851308
    21   6 C       49   1 H                                       1.0876345
    21   6 C       50   1 H                                       1.0871384
    21   6 C       51   1 H                                       1.0859028
    23   6 C       52   1 H                                       1.0858999
    23   6 C       53   1 H                                       1.0876014
    23   6 C       54   1 H                                       1.0870386
    24   6 C       55   1 H                                       1.0866215
    24   6 C       56   1 H                                       1.0851028
    24   6 C       57   1 H                                       1.0871730
    26   6 C       58   1 H                                       1.0824609
    29   6 C       59   1 H                                       1.0820347 (min)
    30   6 C       60   1 H                                       1.0831110

 * 5 distinct bonds (by element types)

   Z      Z             #   av. dist./Å        max./Å        min./Å
   1 H    6 C          32     1.0859525     1.0903175     1.0820347
   5 B    6 C           2     1.5614551     1.5645945     1.5583158
   6 C    6 C          18     1.4792715     1.5342336     1.3365921
   5 B    8 O           4     1.3672132     1.3684757     1.3643256
   6 C    8 O           4     1.4276643     1.4291116     1.4261763


optimized geometry written to: xtbopt.xyz


           -------------------------------------------------
          | TOTAL ENERGY              -82.314803838699 Eh   |
          | GRADIENT NORM               0.000946901233 Eh/α |
          | HOMO-LUMO GAP               3.279098544186 eV   |
           -------------------------------------------------

------------------------------------------------------------------------
 * finished run on 2022/07/09 at 18:33:39.091     
------------------------------------------------------------------------
 total:
 * wall-time:     0 d,  0 h,  0 min,  1.142 sec
 *  cpu-time:     0 d,  0 h,  0 min,  1.141 sec
 * ratio c/w:     0.999 speedup
 SCF:
 * wall-time:     0 d,  0 h,  0 min,  0.069 sec
 *  cpu-time:     0 d,  0 h,  0 min,  0.069 sec
 * ratio c/w:     1.000 speedup
 ANC optimizer:
 * wall-time:     0 d,  0 h,  0 min,  1.062 sec
 *  cpu-time:     0 d,  0 h,  0 min,  1.060 sec
 * ratio c/w:     0.999 speedup

