      -----------------------------------------------------------      
     |                   =====================                   |     
     |                           x T B                           |     
     |                   =====================                   |     
     |                         S. Grimme                         |     
     |          Mulliken Center for Theoretical Chemistry        |     
     |                    University of Bonn                     |     
      -----------------------------------------------------------      

   * xtb version 6.5.0 (homebrew) compiled by 'nhattrup@GPGGRP-SHANNON.CHEME.CMU.EDU' on 

   xtb is free software: you can redistribute it and/or modify it under
   the terms of the GNU Lesser General Public License as published by
   the Free Software Foundation, either version 3 of the License, or
   (at your option) any later version.
   
   xtb is distributed in the hope that it will be useful,
   but WITHOUT ANY WARRANTY; without even the implied warranty of
   MERCHANTABILITY or FITNESS FOR A PARTICULAR PURPOSE.  See the
   GNU Lesser General Public License for more details.
   
   Cite this work as:
   * C. Bannwarth, E. Caldeweyher, S. Ehlert, A. Hansen, P. Pracht,
     J. Seibert, S. Spicher, S. Grimme, WIREs Comput. Mol. Sci., 2020, 11,
     e01493. DOI: 10.1002/wcms.1493
   
   for GFN2-xTB:
   * C. Bannwarth, S. Ehlert and S. Grimme., J. Chem. Theory Comput., 2019,
     15, 1652-1671. DOI: 10.1021/acs.jctc.8b01176
   for GFN1-xTB:
   * S. Grimme, C. Bannwarth, P. Shushkov, J. Chem. Theory Comput., 2017,
     13, 1989-2009. DOI: 10.1021/acs.jctc.7b00118
   for GFN0-xTB:
   * P. Pracht, E. Caldeweyher, S. Ehlert, S. Grimme, ChemRxiv, 2019, preprint.
     DOI: 10.26434/chemrxiv.8326202.v1
   for GFN-FF:
   * S. Spicher and S. Grimme, Angew. Chem. Int. Ed., 2020, 59, 15665-15673.
     DOI: 10.1002/anie.202004239
   
   for ALPB and GBSA implicit solvation:
   * S. Ehlert, M. Stahn, S. Spicher, S. Grimme, J. Chem. Theory Comput.,
     2021, 17, 4250-4261. DOI: 10.1021/acs.jctc.1c00471
   
   for DFT-D4:
   * E. Caldeweyher, C. Bannwarth and S. Grimme, J. Chem. Phys., 2017,
     147, 034112. DOI: 10.1063/1.4993215
   * E. Caldeweyher, S. Ehlert, A. Hansen, H. Neugebauer, S. Spicher,
     C. Bannwarth and S. Grimme, J. Chem. Phys., 2019, 150, 154122.
     DOI: 10.1063/1.5090222
   * E. Caldeweyher, J.-M. Mewes, S. Ehlert and S. Grimme, Phys. Chem. Chem. Phys.
     2020, 22, 8499-8512. DOI: 10.1039/D0CP00502A
   
   for sTDA-xTB:
   * S. Grimme and C. Bannwarth, J. Chem. Phys., 2016, 145, 054103.
     DOI: 10.1063/1.4959605
   
   in the mass-spec context:
   * V. Asgeirsson, C. Bauer and S. Grimme, Chem. Sci., 2017, 8, 4879.
     DOI: 10.1039/c7sc00601b
   * J. Koopman and S. Grimme, ACS Omega 2019, 4, 12, 15120-15133.
     DOI: 10.1021/acsomega.9b02011
   
   for metadynamics refer to:
   * S. Grimme, J. Chem. Theory Comput., 2019, 155, 2847-2862
     DOI: 10.1021/acs.jctc.9b00143
   
   for SPH calculations refer to:
   * S. Spicher and S. Grimme, J. Chem. Theory Comput., 2021, 17, 1701-1714
     DOI: 10.1021/acs.jctc.0c01306
   
   with help from (in alphabetical order)
   P. Atkinson, C. Bannwarth, F. Bohle, G. Brandenburg, E. Caldeweyher
   M. Checinski, S. Dohm, S. Ehlert, S. Ehrlich, I. Gerasimov, C. Hölzer
   A. Katbashev, J. Koopman, C. Lavigne, S. Lehtola, F. März, M. Müller,
   F. Musil, H. Neugebauer, J. Pisarek, C. Plett, P. Pracht, F. Pultar,
   J. Seibert, P. Shushkov, S. Spicher, M. Stahn, M. Steiner, T. Strunk,
   J. Stückrath, T. Rose, and J. Unsleber
   
 * started run on 2022/07/09 at 18:33:15.820     

           -------------------------------------------------
          |                Calculation Setup                |
           -------------------------------------------------

          program call               : /opt/homebrew/bin/xtb bvl_bpin2_scan_7-1_xtb.xyz --chrg 0 --uhf 0 --opt --input xcontrol_bvl_bpin2_scan_7-1_xtb
          coordinate file            : bvl_bpin2_scan_7-1_xtb.xyz
          omp threads                :                     1

   ID    Z sym.   atoms
    1    6 C      1, 2, 4-7, 10-12, 14, 16, 19-24, 26, 27, 29-31
    2    8 O      3, 8, 18, 25
    3    5 B      9, 17
    4    1 H      13, 15, 28, 32-60
constraining bond 12 31 to    2.2778000 Å, actual value:    2.1624973 Å
constraining bond 10 29 to    2.3889000 Å, actual value:    2.4969260 Å

           -------------------------------------------------
          |                 G F N 2 - x T B                 |
           -------------------------------------------------

        Reference                      10.1021/acs.jctc.8b01176
      * Hamiltonian:
        H0-scaling (s, p, d)           1.850000    2.230000    2.230000
        zeta-weighting                 0.500000
      * Dispersion:
        s8                             2.700000
        a1                             0.520000
        a2                             5.000000
        s9                             5.000000
      * Repulsion:
        kExp                           1.500000    1.000000
        rExp                           1.000000
      * Coulomb:
        alpha                          2.000000
        third order                    shell-resolved
        anisotropic                    true
        a3                             3.000000
        a5                             4.000000
        cn-shift                       1.200000
        cn-exp                         4.000000
        max-rad                        5.000000


          ...................................................
          :                      SETUP                      :
          :.................................................:
          :  # basis functions                 144          :
          :  # atomic orbitals                 144          :
          :  # shells                           88          :
          :  # electrons                       150          :
          :  max. iterations                   250          :
          :  Hamiltonian                  GFN2-xTB          :
          :  restarted?                      false          :
          :  GBSA solvation                  false          :
          :  PC potential                    false          :
          :  electronic temp.          300.0000000     K    :
          :  accuracy                    1.0000000          :
          :  -> integral cutoff          0.2500000E+02      :
          :  -> integral neglect         0.1000000E-07      :
          :  -> SCF convergence          0.1000000E-05 Eh   :
          :  -> wf. convergence          0.1000000E-03 e    :
          :  Broyden damping             0.4000000          :
          ...................................................

 iter      E             dE          RMSdq      gap      omega  full diag
   1    -82.9135970 -0.829136E+02  0.475E+00    1.45       0.0  T
   2    -83.2647305 -0.351133E+00  0.297E+00    1.39       1.0  T
   3    -83.1838970  0.808335E-01  0.204E+00    1.84       1.0  T
   4    -83.1656394  0.182576E-01  0.165E+00    1.82       1.0  T
   5    -83.3420435 -0.176404E+00  0.324E-01    1.42       1.0  T
   6    -83.3475293 -0.548579E-02  0.130E-01    1.42       1.0  T
   7    -83.3471569  0.372432E-03  0.102E-01    1.41       1.0  T
   8    -83.3476726 -0.515691E-03  0.254E-02    1.42       1.0  T
   9    -83.3477090 -0.364448E-04  0.776E-03    1.42       1.7  T
  10    -83.3477104 -0.138182E-05  0.426E-03    1.42       3.0  T
  11    -83.3477107 -0.284879E-06  0.191E-03    1.42       6.8  T
  12    -83.3477108 -0.106310E-06  0.376E-04    1.42      34.3  T
  13    -83.3477108 -0.809649E-09  0.210E-04    1.42      61.6  T

   *** convergence criteria satisfied after 13 iterations ***

         #    Occupation            Energy/Eh            Energy/eV
      -------------------------------------------------------------
         1        2.0000           -0.6869638             -18.6932
       ...           ...                  ...                  ...
        69        2.0000           -0.3998786             -10.8812
        70        2.0000           -0.3973608             -10.8127
        71        2.0000           -0.3965284             -10.7901
        72        2.0000           -0.3937237             -10.7138
        73        2.0000           -0.3918222             -10.6620
        74        2.0000           -0.3653141              -9.9407
        75        2.0000           -0.3259341              -8.8691 (HOMO)
        76                         -0.2738529              -7.4519 (LUMO)
        77                         -0.2177203              -5.9245
        78                         -0.1866357              -5.0786
        79                         -0.1456535              -3.9634
        80                         -0.0960409              -2.6134
       ...                                ...                  ...
       144                          0.6747983              18.3622
      -------------------------------------------------------------
                  HL-Gap            0.0520812 Eh            1.4172 eV
             Fermi-level           -0.2998935 Eh           -8.1605 eV

 SCC (total)                   0 d,  0 h,  0 min,  0.071 sec
 SCC setup                      ...        0 min,  0.000 sec (  0.350%)
 Dispersion                     ...        0 min,  0.000 sec (  0.604%)
 classical contributions        ...        0 min,  0.000 sec (  0.246%)
 integral evaluation            ...        0 min,  0.006 sec (  8.709%)
 iterations                     ...        0 min,  0.036 sec ( 50.832%)
 molecular gradient             ...        0 min,  0.027 sec ( 38.769%)
 printout                       ...        0 min,  0.000 sec (  0.481%)

         :::::::::::::::::::::::::::::::::::::::::::::::::::::
         ::                     SUMMARY                     ::
         :::::::::::::::::::::::::::::::::::::::::::::::::::::
         :: total energy             -82.098173709046 Eh    ::
         :: gradient norm              1.680144299389 Eh/a0 ::
         :: HOMO-LUMO gap              1.417202086230 eV    ::
         ::.................................................::
         :: SCC energy               -83.347710789055 Eh    ::
         :: -> isotropic ES            0.147585732067 Eh    ::
         :: -> anisotropic ES          0.012700670324 Eh    ::
         :: -> anisotropic XC          0.027603667400 Eh    ::
         :: -> dispersion             -0.062074544669 Eh    ::
         :: repulsion energy           1.070441958106 Eh    ::
         :: add. restraining           0.178298388589 Eh    ::
         :: total charge               0.000000000000 e     ::
         :::::::::::::::::::::::::::::::::::::::::::::::::::::

      ----------------------------------------------------------- 
     |                   =====================                   |
     |                        A N C O P T                        |
     |                   =====================                   |
     |               Approximate Normal Coordinate               |
     |                Rational Function Optimizer                |
      ----------------------------------------------------------- 

          ...................................................
          :                      SETUP                      :
          :.................................................:
          :   optimization level            normal          :
          :   max. optcycles                   200          :
          :   ANC micro-cycles                  20          :
          :   degrees of freedom               174          :
          :.................................................:
          :   RF solver                   davidson          :
          :   write xtbopt.log                true          :
          :   linear?                        false          :
          :   energy convergence         0.5000000E-05 Eh   :
          :   grad. convergence          0.1000000E-02 Eh/α :
          :   maximium RF displ.         1.0000000          :
          :   Hlow (freq-cutoff)         0.1000000E-01      :
          :   Hmax (freq-cutoff)         5.0000000          :
          :   S6 in model hess.         20.0000000          :
          ...................................................

generating ANC from model Hessian ...
Using Lindh-Hessian (1995)
 Shifting diagonal of input Hessian by   0.21383768592368935     
 Lowest  eigenvalues of input Hessian
    0.010000    0.143009    0.000000    0.000000    0.000000    0.000000
    0.000000    0.000000    0.213929    0.213972    0.214089    0.215446
    0.215681    0.216456    0.217131    0.217191    0.218508    0.218997
 Highest eigenvalues
    1.925041    2.089653    2.100557    2.203020    8.819266    8.874554


........................................................................
.............................. CYCLE    1 ..............................
........................................................................
   1    -83.3477108 -0.833477E+02  0.838E-05    1.42       0.0  T
   2    -83.3477108 -0.817693E-10  0.611E-05    1.42     211.2  T
   3    -83.3477108 -0.971738E-10  0.453E-05    1.42     285.2  T
     SCC iter.                  ...        0 min,  0.009 sec
     gradient                   ...        0 min,  0.028 sec
 * total energy  :   -82.0981737 Eh     change       -0.5267822E-09 Eh
   gradient norm :     1.6801440 Eh/α   predicted     0.0000000E+00 (-100.00%)
   displ. norm   :     0.3116646 α      lambda       -0.5166800E+00
   maximum displ.:     0.3038608 α      in ANC's #174, #127, #113, ...

........................................................................
.............................. CYCLE    2 ..............................
........................................................................
   1    -83.3347606 -0.833348E+02  0.298E-01    1.21       0.0  T
   2    -83.3338320  0.928573E-03  0.296E-01    1.23       1.0  T
   3    -83.3373762 -0.354418E-02  0.143E-01    1.22       1.0  T
   4    -83.3370978  0.278391E-03  0.757E-02    1.23       1.0  T
   5    -83.3372533 -0.155536E-03  0.547E-02    1.22       1.0  T
   6    -83.3374510 -0.197674E-03  0.953E-03    1.22       1.4  T
   7    -83.3374555 -0.452884E-05  0.317E-03    1.22       4.1  T
   8    -83.3374556 -0.100331E-06  0.895E-04    1.22      14.4  T
   9    -83.3374557 -0.224033E-07  0.362E-04    1.22      35.7  T
     SCC iter.                  ...        0 min,  0.025 sec
     gradient                   ...        0 min,  0.027 sec
 * total energy  :   -82.2281160 Eh     change       -0.1299423E+00 Eh
   gradient norm :     0.8472279 Eh/α   predicted    -0.2835207E+00 ( 118.19%)
   displ. norm   :     0.1063929 α      lambda       -0.8461931E-01
   maximum displ.:     0.1011740 α      in ANC's #174, #37, #113, ...

........................................................................
.............................. CYCLE    3 ..............................
........................................................................
   1    -83.3422193 -0.833422E+02  0.105E-01    1.27       0.0  T
   2    -83.3420744  0.144957E-03  0.107E-01    1.26       1.0  T
   3    -83.3425724 -0.498042E-03  0.534E-02    1.26       1.0  T
   4    -83.3421857  0.386739E-03  0.795E-02    1.26       1.0  T
   5    -83.3425945 -0.408817E-03  0.130E-02    1.26       1.0  T
   6    -83.3426037 -0.923633E-05  0.319E-03    1.26       4.1  T
   7    -83.3426042 -0.463994E-06  0.120E-03    1.26      10.8  T
   8    -83.3426042 -0.176908E-07  0.301E-04    1.26      43.0  T
   9    -83.3426042 -0.163170E-08  0.130E-04    1.26      99.3  T
     SCC iter.                  ...        0 min,  0.026 sec
     gradient                   ...        0 min,  0.028 sec
 * total energy  :   -82.2722106 Eh     change       -0.4409458E-01 Eh
   gradient norm :     0.0281060 Eh/α   predicted    -0.4365759E-01 (  -0.99%)
   displ. norm   :     0.0424934 α      lambda       -0.8019916E-03
   maximum displ.:     0.0218346 α      in ANC's #37, #113, #127, ...

........................................................................
.............................. CYCLE    4 ..............................
........................................................................
   1    -83.3429812 -0.833430E+02  0.282E-02    1.27       0.0  T
   2    -83.3429781  0.312554E-05  0.189E-02    1.27       1.0  T
   3    -83.3429312  0.468945E-04  0.281E-02    1.27       1.0  T
   4    -83.3429793 -0.481596E-04  0.851E-03    1.27       1.5  T
   5    -83.3429843 -0.497051E-05  0.176E-03    1.27       7.3  T
   6    -83.3429845 -0.206381E-06  0.508E-04    1.27      25.4  T
   7    -83.3429845 -0.641457E-08  0.260E-04    1.27      49.6  T
     SCC iter.                  ...        0 min,  0.019 sec
     gradient                   ...        0 min,  0.027 sec
 * total energy  :   -82.2729003 Eh     change       -0.6897330E-03 Eh
   gradient norm :     0.0164138 Eh/α   predicted    -0.4252004E-03 ( -38.35%)
   displ. norm   :     0.1236688 α      lambda       -0.1421593E-02
   maximum displ.:     0.0682465 α      in ANC's #37, #1, #33, ...

........................................................................
.............................. CYCLE    5 ..............................
........................................................................
   1    -83.3435420 -0.833435E+02  0.780E-02    1.27       0.0  T
   2    -83.3434925  0.494477E-04  0.545E-02    1.27       1.0  T
   3    -83.3430598  0.432718E-03  0.878E-02    1.27       1.0  T
   4    -83.3435492 -0.489328E-03  0.115E-02    1.27       1.1  T
   5    -83.3435586 -0.943357E-05  0.387E-03    1.27       3.3  T
   6    -83.3435596 -0.980487E-06  0.146E-03    1.27       8.8  T
   7    -83.3435596 -0.805098E-07  0.620E-04    1.27      20.8  T
   8    -83.3435597 -0.112186E-07  0.173E-04    1.27      74.5  T
     SCC iter.                  ...        0 min,  0.022 sec
     gradient                   ...        0 min,  0.028 sec
 * total energy  :   -82.2736065 Eh     change       -0.7061941E-03 Eh
   gradient norm :     0.0202330 Eh/α   predicted    -0.7219267E-03 (   2.23%)
   displ. norm   :     0.3123317 α      lambda       -0.1483471E-02
   maximum displ.:     0.2808186 α      in ANC's #1, #37, #33, ...

........................................................................
.............................. CYCLE    6 ..............................
........................................................................
   1    -83.3394062 -0.833394E+02  0.186E-01    1.24       0.0  T
   2    -83.3392818  0.124413E-03  0.122E-01    1.24       1.0  T
   3    -83.3359362  0.334561E-02  0.225E-01    1.24       1.0  T
   4    -83.3394370 -0.350080E-02  0.162E-02    1.24       1.0  T
   5    -83.3394561 -0.191662E-04  0.528E-03    1.24       2.4  T
   6    -83.3394570 -0.920382E-06  0.340E-03    1.24       3.8  T
   7    -83.3394575 -0.481838E-06  0.115E-03    1.24      11.2  T
   8    -83.3394576 -0.603819E-07  0.362E-04    1.24      35.7  T
   9    -83.3394576 -0.427062E-08  0.133E-04    1.24      97.3  T
     SCC iter.                  ...        0 min,  0.025 sec
     gradient                   ...        0 min,  0.028 sec
 * total energy  :   -82.2705938 Eh     change        0.3012679E-02 Eh
   gradient norm :     0.0732841 Eh/α   predicted    -0.8140656E-03 (-127.02%)
   displ. norm   :     0.2266646 α      lambda       -0.6824080E-02
   maximum displ.:     0.2179868 α      in ANC's #1, #37, #113, ...

........................................................................
.............................. CYCLE    7 ..............................
........................................................................
   1    -83.3448251 -0.833448E+02  0.139E-01    1.27       0.0  T
   2    -83.3447220  0.103099E-03  0.937E-02    1.27       1.0  T
   3    -83.3430500  0.167200E-02  0.165E-01    1.28       1.0  T
   4    -83.3448478 -0.179780E-02  0.137E-02    1.27       1.0  T
   5    -83.3448621 -0.143116E-04  0.423E-03    1.27       3.1  T
   6    -83.3448629 -0.758049E-06  0.249E-03    1.27       5.2  T
   7    -83.3448631 -0.225549E-06  0.893E-04    1.27      14.5  T
   8    -83.3448631 -0.393591E-07  0.270E-04    1.27      47.8  T
     SCC iter.                  ...        0 min,  0.022 sec
     gradient                   ...        0 min,  0.028 sec
 * total energy  :   -82.2739725 Eh     change       -0.3378638E-02 Eh
   gradient norm :     0.0312722 Eh/α   predicted    -0.3588464E-02 (   6.21%)
   displ. norm   :     0.0331889 α      lambda       -0.3589938E-03
   maximum displ.:     0.0250329 α      in ANC's #1, #37, #33, ...

........................................................................
.............................. CYCLE    8 ..............................
........................................................................
   1    -83.3452687 -0.833453E+02  0.204E-02    1.26       0.0  T
   2    -83.3452689 -0.236362E-06  0.126E-02    1.26       1.0  T
   3    -83.3452585  0.104112E-04  0.126E-02    1.26       1.0  T
   4    -83.3452675 -0.901307E-05  0.576E-03    1.26       2.2  T
   5    -83.3452695 -0.201263E-05  0.162E-03    1.26       8.0  T
   6    -83.3452697 -0.208518E-06  0.345E-04    1.26      37.5  T
   7    -83.3452697 -0.267818E-08  0.166E-04    1.26      77.9  T
     SCC iter.                  ...        0 min,  0.019 sec
     gradient                   ...        0 min,  0.028 sec
 * total energy  :   -82.2741889 Eh     change       -0.2163872E-03 Eh
   gradient norm :     0.0129895 Eh/α   predicted    -0.1800893E-03 ( -16.77%)
   displ. norm   :     0.0682065 α      lambda       -0.2988725E-03
   maximum displ.:     0.0474671 α      in ANC's #37, #33, #32, ...

........................................................................
.............................. CYCLE    9 ..............................
........................................................................
   1    -83.3460122 -0.833460E+02  0.343E-02    1.26       0.0  T
   2    -83.3460122 -0.380869E-07  0.204E-02    1.26       1.0  T
   3    -83.3459995  0.126962E-04  0.137E-02    1.26       1.0  T
   4    -83.3460118 -0.123062E-04  0.340E-03    1.26       3.8  T
   5    -83.3460126 -0.778997E-06  0.111E-03    1.26      11.6  T
   6    -83.3460127 -0.774655E-07  0.354E-04    1.26      36.5  T
   7    -83.3460127 -0.860808E-09  0.152E-04    1.26      84.9  T
     SCC iter.                  ...        0 min,  0.019 sec
     gradient                   ...        0 min,  0.027 sec
 * total energy  :   -82.2744340 Eh     change       -0.2451065E-03 Eh
   gradient norm :     0.0110568 Eh/α   predicted    -0.1500831E-03 ( -38.77%)
   displ. norm   :     0.1541881 α      lambda       -0.4936697E-03
   maximum displ.:     0.1069623 α      in ANC's #37, #33, #32, ...

........................................................................
.............................. CYCLE   10 ..............................
........................................................................
   1    -83.3470593 -0.833471E+02  0.758E-02    1.26       0.0  T
   2    -83.3470597 -0.391339E-06  0.453E-02    1.26       1.0  T
   3    -83.3470267  0.330023E-04  0.213E-02    1.26       1.0  T
   4    -83.3470592 -0.325271E-04  0.492E-03    1.26       2.6  T
   5    -83.3470606 -0.132698E-05  0.146E-03    1.26       8.8  T
   6    -83.3470607 -0.976514E-07  0.805E-04    1.26      16.0  T
   7    -83.3470607 -0.134090E-07  0.285E-04    1.26      45.3  T
     SCC iter.                  ...        0 min,  0.019 sec
     gradient                   ...        0 min,  0.028 sec
 * total energy  :   -82.2747130 Eh     change       -0.2790652E-03 Eh
   gradient norm :     0.0057051 Eh/α   predicted    -0.2524308E-03 (  -9.54%)
   displ. norm   :     0.0326934 α      lambda       -0.5533415E-04
   maximum displ.:     0.0191428 α      in ANC's #37, #33, #32, ...

........................................................................
.............................. CYCLE   11 ..............................
........................................................................
   1    -83.3473923 -0.833474E+02  0.149E-02    1.26       0.0  T
   2    -83.3473918  0.474384E-06  0.952E-03    1.26       1.4  T
   3    -83.3473736  0.182422E-04  0.165E-02    1.26       1.0  T
   4    -83.3473924 -0.188369E-04  0.799E-04    1.26      16.2  T
   5    -83.3473924 -0.355480E-07  0.238E-04    1.26      54.2  T
   6    -83.3473924 -0.125488E-08  0.132E-04    1.26      98.0  T
     SCC iter.                  ...        0 min,  0.016 sec
     gradient                   ...        0 min,  0.028 sec
 * total energy  :   -82.2747581 Eh     change       -0.4502767E-04 Eh
   gradient norm :     0.0042031 Eh/α   predicted    -0.2778027E-04 ( -38.30%)
   displ. norm   :     0.0544717 α      lambda       -0.9989560E-04
   maximum displ.:     0.0232197 α      in ANC's #37, #28, #33, ...

........................................................................
.............................. CYCLE   12 ..............................
........................................................................
   1    -83.3480519 -0.833481E+02  0.233E-02    1.26       0.0  T
   2    -83.3480496  0.224291E-05  0.156E-02    1.26       1.0  T
   3    -83.3480026  0.470500E-04  0.271E-02    1.26       1.0  T
   4    -83.3480523 -0.497371E-04  0.205E-03    1.26       6.3  T
   5    -83.3480525 -0.217885E-06  0.515E-04    1.26      25.1  T
   6    -83.3480525 -0.914571E-08  0.249E-04    1.26      51.8  T
     SCC iter.                  ...        0 min,  0.017 sec
     gradient                   ...        0 min,  0.028 sec
 * total energy  :   -82.2748229 Eh     change       -0.6478665E-04 Eh
   gradient norm :     0.0028264 Eh/α   predicted    -0.5019424E-04 ( -22.52%)
   displ. norm   :     0.0308360 α      lambda       -0.4074862E-04
   maximum displ.:     0.0109213 α      in ANC's #28, #8, #19, ...

........................................................................
.............................. CYCLE   13 ..............................
........................................................................
   1    -83.3483106 -0.833483E+02  0.111E-02    1.26       0.0  T
   2    -83.3483101  0.566567E-06  0.757E-03    1.26       1.7  T
   3    -83.3483000  0.100632E-04  0.127E-02    1.26       1.0  T
   4    -83.3483107 -0.107323E-04  0.106E-03    1.26      12.1  T
   5    -83.3483108 -0.589452E-07  0.291E-04    1.26      44.4  T
   6    -83.3483108 -0.353751E-08  0.130E-04    1.26      99.4  T
     SCC iter.                  ...        0 min,  0.016 sec
     gradient                   ...        0 min,  0.028 sec
 * total energy  :   -82.2748549 Eh     change       -0.3202073E-04 Eh
   gradient norm :     0.0032856 Eh/α   predicted    -0.2045702E-04 ( -36.11%)
   displ. norm   :     0.0518500 α      lambda       -0.6575784E-04
   maximum displ.:     0.0195569 α      in ANC's #28, #8, #43, ...

........................................................................
.............................. CYCLE   14 ..............................
........................................................................
   1    -83.3484271 -0.833484E+02  0.164E-02    1.26       0.0  T
   2    -83.3484266  0.505967E-06  0.107E-02    1.26       1.2  T
   3    -83.3484073  0.193731E-04  0.173E-02    1.26       1.0  T
   4    -83.3484272 -0.199446E-04  0.168E-03    1.26       7.7  T
   5    -83.3484274 -0.179296E-06  0.531E-04    1.26      24.3  T
   6    -83.3484274 -0.157532E-07  0.223E-04    1.26      57.9  T
     SCC iter.                  ...        0 min,  0.017 sec
     gradient                   ...        0 min,  0.028 sec
 * total energy  :   -82.2749009 Eh     change       -0.4604630E-04 Eh
   gradient norm :     0.0036118 Eh/α   predicted    -0.3299618E-04 ( -28.34%)
   displ. norm   :     0.0433743 α      lambda       -0.4643627E-04
   maximum displ.:     0.0173985 α      in ANC's #28, #8, #43, ...

........................................................................
.............................. CYCLE   15 ..............................
........................................................................
   1    -83.3482082 -0.833482E+02  0.135E-02    1.27       0.0  T
   2    -83.3482083 -0.776060E-07  0.815E-03    1.27       1.6  T
   3    -83.3482078  0.518411E-06  0.294E-03    1.27       4.4  T
   4    -83.3482081 -0.339653E-06  0.178E-03    1.27       7.2  T
   5    -83.3482083 -0.202673E-06  0.503E-04    1.27      25.7  T
   6    -83.3482083 -0.144305E-07  0.189E-04    1.27      68.2  T
     SCC iter.                  ...        0 min,  0.016 sec
     gradient                   ...        0 min,  0.028 sec
 * total energy  :   -82.2749350 Eh     change       -0.3411547E-04 Eh
   gradient norm :     0.0030419 Eh/α   predicted    -0.2327498E-04 ( -31.78%)
   displ. norm   :     0.0456299 α      lambda       -0.4580571E-04
   maximum displ.:     0.0197276 α      in ANC's #28, #8, #37, ...

........................................................................
.............................. CYCLE   16 ..............................
........................................................................
   1    -83.3477560 -0.833478E+02  0.161E-02    1.27       0.0  T
   2    -83.3477559  0.414970E-07  0.971E-03    1.27       1.3  T
   3    -83.3477495  0.637464E-05  0.979E-03    1.27       1.3  T
   4    -83.3477559 -0.637404E-05  0.167E-03    1.27       7.7  T
   5    -83.3477561 -0.166403E-06  0.337E-04    1.27      38.3  T
   6    -83.3477561 -0.155379E-08  0.191E-04    1.27      67.5  T
     SCC iter.                  ...        0 min,  0.016 sec
     gradient                   ...        0 min,  0.028 sec
 * total energy  :   -82.2749680 Eh     change       -0.3295470E-04 Eh
   gradient norm :     0.0025460 Eh/α   predicted    -0.2296638E-04 ( -30.31%)
   displ. norm   :     0.0447686 α      lambda       -0.4034090E-04
   maximum displ.:     0.0208622 α      in ANC's #28, #8, #37, ...

........................................................................
.............................. CYCLE   17 ..............................
........................................................................
   1    -83.3472810 -0.833473E+02  0.178E-02    1.27       0.0  T
   2    -83.3472810  0.328608E-07  0.107E-02    1.27       1.2  T
   3    -83.3472767  0.427892E-05  0.810E-03    1.27       1.6  T
   4    -83.3472809 -0.424804E-05  0.148E-03    1.27       8.7  T
   5    -83.3472811 -0.132396E-06  0.342E-04    1.27      37.8  T
   6    -83.3472811 -0.638963E-09  0.209E-04    1.27      61.8  T
     SCC iter.                  ...        0 min,  0.016 sec
     gradient                   ...        0 min,  0.028 sec
 * total energy  :   -82.2749978 Eh     change       -0.2981744E-04 Eh
   gradient norm :     0.0029759 Eh/α   predicted    -0.2022600E-04 ( -32.17%)
   displ. norm   :     0.0516859 α      lambda       -0.4268232E-04
   maximum displ.:     0.0254495 α      in ANC's #28, #8, #6, ...

........................................................................
.............................. CYCLE   18 ..............................
........................................................................
   1    -83.3468767 -0.833469E+02  0.211E-02    1.28       0.0  T
   2    -83.3468767  0.168515E-07  0.127E-02    1.28       1.0  T
   3    -83.3468724  0.434214E-05  0.781E-03    1.28       1.7  T
   4    -83.3468767 -0.429120E-05  0.164E-03    1.28       7.9  T
   5    -83.3468768 -0.150777E-06  0.460E-04    1.28      28.1  T
   6    -83.3468768 -0.746810E-08  0.225E-04    1.28      57.5  T
     SCC iter.                  ...        0 min,  0.016 sec
     gradient                   ...        0 min,  0.028 sec
 * total energy  :   -82.2750287 Eh     change       -0.3091482E-04 Eh
   gradient norm :     0.0033369 Eh/α   predicted    -0.2141124E-04 ( -30.74%)
   displ. norm   :     0.0514513 α      lambda       -0.3786017E-04
   maximum displ.:     0.0262282 α      in ANC's #28, #8, #18, ...

........................................................................
.............................. CYCLE   19 ..............................
........................................................................
   1    -83.3467227 -0.833467E+02  0.201E-02    1.28       0.0  T
   2    -83.3467219  0.738460E-06  0.126E-02    1.28       1.0  T
   3    -83.3466920  0.299549E-04  0.212E-02    1.28       1.0  T
   4    -83.3467228 -0.308504E-04  0.131E-03    1.28       9.9  T
   5    -83.3467229 -0.108441E-06  0.491E-04    1.28      26.3  T
   6    -83.3467229 -0.131500E-07  0.253E-04    1.28      51.1  T
     SCC iter.                  ...        0 min,  0.016 sec
     gradient                   ...        0 min,  0.028 sec
 * total energy  :   -82.2750557 Eh     change       -0.2697951E-04 Eh
   gradient norm :     0.0028194 Eh/α   predicted    -0.1899547E-04 ( -29.59%)
   displ. norm   :     0.0432602 α      lambda       -0.2856256E-04
   maximum displ.:     0.0222767 α      in ANC's #28, #8, #18, ...

........................................................................
.............................. CYCLE   20 ..............................
........................................................................
   1    -83.3468315 -0.833468E+02  0.157E-02    1.29       0.0  T
   2    -83.3468301  0.139749E-05  0.106E-02    1.29       1.2  T
   3    -83.3468101  0.199969E-04  0.183E-02    1.28       1.0  T
   4    -83.3468318 -0.216850E-04  0.125E-03    1.29      10.3  T
   5    -83.3468319 -0.101656E-06  0.343E-04    1.29      37.7  T
   6    -83.3468319 -0.527398E-08  0.182E-04    1.29      71.0  T
     SCC iter.                  ...        0 min,  0.016 sec
     gradient                   ...        0 min,  0.027 sec
 * total energy  :   -82.2750758 Eh     change       -0.2005529E-04 Eh
   gradient norm :     0.0019102 Eh/α   predicted    -0.1431667E-04 ( -28.61%)
   displ. norm   :     0.0497956 α      lambda       -0.1947392E-04
   maximum displ.:     0.0248704 α      in ANC's #28, #18, #8, ...
 * RMSD in coord.:     0.1042968 α      energy gain  -0.1769021E+00 Eh

generating ANC from model Hessian ...
Using Lindh-Hessian (1995)
 Shifting diagonal of input Hessian by    1.0131802247744301E-002
 Lowest  eigenvalues of input Hessian
    0.010000    0.000000    0.000000    0.000000    0.000000    0.000000
    0.000000    0.010223    0.010247    0.010273    0.010934    0.011876
    0.012382    0.013167    0.013429    0.013502    0.015033    0.015274
 Highest eigenvalues
    1.718707    1.888659    1.895521    1.910961    8.600422    8.653488


........................................................................
.............................. CYCLE   21 ..............................
........................................................................
   1    -83.3471340 -0.833471E+02  0.169E-02    1.29       0.0  T
   2    -83.3471318  0.215803E-05  0.118E-02    1.29       1.1  T
   3    -83.3471113  0.205498E-04  0.191E-02    1.29       1.0  T
   4    -83.3471344 -0.231563E-04  0.146E-03    1.29       8.8  T
   5    -83.3471345 -0.109818E-06  0.405E-04    1.29      31.9  T
   6    -83.3471345 -0.573287E-08  0.173E-04    1.29      74.7  T
     SCC iter.                  ...        0 min,  0.016 sec
     gradient                   ...        0 min,  0.028 sec
 * total energy  :   -82.2750927 Eh     change       -0.1690484E-04 Eh
   gradient norm :     0.0021284 Eh/α   predicted     0.0000000E+00 (-100.00%)
   displ. norm   :     0.0530543 α      lambda       -0.5186927E-04
   maximum displ.:     0.0236439 α      in ANC's #3, #6, #2, ...

........................................................................
.............................. CYCLE   22 ..............................
........................................................................
   1    -83.3471982 -0.833472E+02  0.138E-02    1.29       0.0  T
   2    -83.3471981  0.270622E-07  0.836E-03    1.29       1.5  T
   3    -83.3471925  0.567235E-05  0.918E-03    1.29       1.4  T
   4    -83.3471981 -0.558653E-05  0.200E-03    1.29       6.5  T
   5    -83.3471983 -0.265584E-06  0.420E-04    1.29      30.7  T
   6    -83.3471983 -0.577495E-08  0.245E-04    1.29      52.6  T
     SCC iter.                  ...        0 min,  0.016 sec
     gradient                   ...        0 min,  0.028 sec
 * total energy  :   -82.2751347 Eh     change       -0.4203776E-04 Eh
   gradient norm :     0.0009655 Eh/α   predicted    -0.2601538E-04 ( -38.11%)
   displ. norm   :     0.2057792 α      lambda       -0.8136655E-04
   maximum displ.:     0.0998011 α      in ANC's #3, #6, #2, ...

........................................................................
.............................. CYCLE   23 ..............................
........................................................................
   1    -83.3470519 -0.833471E+02  0.422E-02    1.28       0.0  T
   2    -83.3470502  0.176690E-05  0.261E-02    1.28       1.0  T
   3    -83.3469513  0.988942E-04  0.384E-02    1.29       1.0  T
   4    -83.3470522 -0.100934E-03  0.424E-03    1.28       3.0  T
   5    -83.3470533 -0.113222E-05  0.988E-04    1.28      13.1  T
   6    -83.3470534 -0.268408E-07  0.600E-04    1.28      21.5  T
   7    -83.3470534 -0.156600E-07  0.286E-04    1.28      45.2  T
     SCC iter.                  ...        0 min,  0.019 sec
     gradient                   ...        0 min,  0.028 sec
 * total energy  :   -82.2751959 Eh     change       -0.6120384E-04 Eh
   gradient norm :     0.0034648 Eh/α   predicted    -0.4145026E-04 ( -32.28%)
   displ. norm   :     0.0585469 α      lambda       -0.2817838E-04
   maximum displ.:     0.0332434 α      in ANC's #3, #2, #6, ...

........................................................................
.............................. CYCLE   24 ..............................
........................................................................
   1    -83.3471140 -0.833471E+02  0.889E-03    1.29       0.0  T
   2    -83.3471139  0.135034E-06  0.563E-03    1.29       2.3  T
   3    -83.3471083  0.559242E-05  0.916E-03    1.29       1.4  T
   4    -83.3471141 -0.576271E-05  0.353E-04    1.29      36.6  T
   5    -83.3471141 -0.526998E-08  0.168E-04    1.29      77.0  T
   6    -83.3471141 -0.424009E-09  0.797E-05    1.29     162.0  T
     SCC iter.                  ...        0 min,  0.016 sec
     gradient                   ...        0 min,  0.028 sec
 * total energy  :   -82.2752213 Eh     change       -0.2538600E-04 Eh
   gradient norm :     0.0018277 Eh/α   predicted    -0.1413781E-04 ( -44.31%)
   displ. norm   :     0.2747382 α      lambda       -0.8123029E-04
   maximum displ.:     0.1527240 α      in ANC's #3, #2, #1, ...

........................................................................
.............................. CYCLE   25 ..............................
........................................................................
   1    -83.3470431 -0.833470E+02  0.425E-02    1.29       0.0  T
   2    -83.3470426  0.442546E-06  0.259E-02    1.29       1.0  T
   3    -83.3469979  0.447189E-04  0.258E-02    1.30       1.0  T
   4    -83.3470430 -0.450940E-04  0.312E-03    1.29       4.1  T
   5    -83.3470436 -0.661155E-06  0.975E-04    1.29      13.2  T
   6    -83.3470437 -0.316230E-07  0.601E-04    1.29      21.5  T
     SCC iter.                  ...        0 min,  0.016 sec
     gradient                   ...        0 min,  0.028 sec
 * total energy  :   -82.2752935 Eh     change       -0.7219404E-04 Eh
   gradient norm :     0.0055926 Eh/α   predicted    -0.4197807E-04 ( -41.85%)
   displ. norm   :     0.1280221 α      lambda       -0.3889401E-04
   maximum displ.:     0.0755146 α      in ANC's #3, #2, #1, ...

........................................................................
.............................. CYCLE   26 ..............................
........................................................................
   1    -83.3469426 -0.833469E+02  0.181E-02    1.30       0.0  T
   2    -83.3469426 -0.189617E-07  0.109E-02    1.30       1.2  T
   3    -83.3469415  0.109343E-05  0.407E-03    1.30       3.2  T
   4    -83.3469425 -0.979396E-06  0.157E-03    1.30       8.2  T
   5    -83.3469426 -0.160074E-06  0.432E-04    1.30      29.9  T
   6    -83.3469426 -0.414815E-08  0.223E-04    1.30      57.8  T
     SCC iter.                  ...        0 min,  0.016 sec
     gradient                   ...        0 min,  0.027 sec
 * total energy  :   -82.2753250 Eh     change       -0.3146514E-04 Eh
   gradient norm :     0.0033977 Eh/α   predicted    -0.1976632E-04 ( -37.18%)
   displ. norm   :     0.1859746 α      lambda       -0.4865835E-04
   maximum displ.:     0.1109659 α      in ANC's #3, #2, #1, ...

........................................................................
.............................. CYCLE   27 ..............................
........................................................................
   1    -83.3468974 -0.833469E+02  0.247E-02    1.30       0.0  T
   2    -83.3468975 -0.507128E-07  0.147E-02    1.30       1.0  T
   3    -83.3468949  0.256285E-05  0.627E-03    1.30       2.1  T
   4    -83.3468972 -0.231177E-05  0.232E-03    1.30       5.6  T
   5    -83.3468976 -0.348872E-06  0.533E-04    1.30      24.2  T
   6    -83.3468976 -0.390260E-08  0.298E-04    1.30      43.3  T
     SCC iter.                  ...        0 min,  0.016 sec
     gradient                   ...        0 min,  0.028 sec
 * total energy  :   -82.2753664 Eh     change       -0.4148628E-04 Eh
   gradient norm :     0.0036741 Eh/α   predicted    -0.2517292E-04 ( -39.32%)
   displ. norm   :     0.2129892 α      lambda       -0.4867224E-04
   maximum displ.:     0.1307676 α      in ANC's #3, #2, #1, ...

........................................................................
.............................. CYCLE   28 ..............................
........................................................................
   1    -83.3470073 -0.833470E+02  0.274E-02    1.30       0.0  T
   2    -83.3470074 -0.105625E-06  0.163E-02    1.30       1.0  T
   3    -83.3470069  0.499028E-06  0.296E-03    1.30       4.4  T
   4    -83.3470074 -0.510421E-06  0.104E-03    1.30      12.4  T
   5    -83.3470074 -0.174824E-07  0.905E-04    1.30      14.3  T
   6    -83.3470075 -0.402419E-07  0.324E-04    1.30      39.8  T
     SCC iter.                  ...        0 min,  0.016 sec
     gradient                   ...        0 min,  0.028 sec
 * total energy  :   -82.2754067 Eh     change       -0.4027168E-04 Eh
   gradient norm :     0.0019048 Eh/α   predicted    -0.2544141E-04 ( -36.83%)
   displ. norm   :     0.2944972 α      lambda       -0.3837745E-04
   maximum displ.:     0.1858643 α      in ANC's #3, #2, #1, ...

........................................................................
.............................. CYCLE   29 ..............................
........................................................................
   1    -83.3471857 -0.833472E+02  0.354E-02    1.30       0.0  T
   2    -83.3471858 -0.169928E-06  0.210E-02    1.30       1.0  T
   3    -83.3471854  0.431443E-06  0.293E-03    1.30       4.4  T
   4    -83.3471859 -0.472586E-06  0.107E-03    1.30      12.1  T
   5    -83.3471859  0.146352E-07  0.111E-03    1.30      11.6  T
   6    -83.3471859 -0.663860E-07  0.337E-04    1.30      38.3  T
   7    -83.3471859 -0.110272E-08  0.173E-04    1.30      74.5  T
     SCC iter.                  ...        0 min,  0.019 sec
     gradient                   ...        0 min,  0.028 sec
 * total energy  :   -82.2754520 Eh     change       -0.4525494E-04 Eh
   gradient norm :     0.0018988 Eh/α   predicted    -0.1993485E-04 ( -55.95%)
   displ. norm   :     0.2222253 α      lambda       -0.2951819E-04
   maximum displ.:     0.1434369 α      in ANC's #3, #2, #1, ...

........................................................................
.............................. CYCLE   30 ..............................
........................................................................
   1    -83.3473790 -0.833474E+02  0.239E-02    1.30       0.0  T
   2    -83.3473790 -0.318409E-07  0.142E-02    1.30       1.0  T
   3    -83.3473764  0.267604E-05  0.642E-03    1.30       2.0  T
   4    -83.3473790 -0.267328E-05  0.113E-03    1.30      11.4  T
   5    -83.3473791 -0.698520E-07  0.504E-04    1.30      25.6  T
   6    -83.3473791 -0.108923E-07  0.241E-04    1.30      53.6  T
     SCC iter.                  ...        0 min,  0.016 sec
     gradient                   ...        0 min,  0.028 sec
 * total energy  :   -82.2754906 Eh     change       -0.3861780E-04 Eh
   gradient norm :     0.0026008 Eh/α   predicted    -0.1508462E-04 ( -60.94%)
   displ. norm   :     0.1921615 α      lambda       -0.4309848E-04
   maximum displ.:     0.1245483 α      in ANC's #3, #2, #1, ...

........................................................................
.............................. CYCLE   31 ..............................
........................................................................
   1    -83.3474697 -0.833475E+02  0.189E-02    1.30       0.0  T
   2    -83.3474698 -0.754248E-07  0.113E-02    1.30       1.1  T
   3    -83.3474691  0.683769E-06  0.281E-03    1.30       4.6  T
   4    -83.3474698 -0.704794E-06  0.751E-04    1.30      17.2  T
   5    -83.3474698  0.854570E-09  0.781E-04    1.30      16.5  T
     SCC iter.                  ...        0 min,  0.014 sec
     gradient                   ...        0 min,  0.028 sec
 * total energy  :   -82.2755273 Eh     change       -0.3668863E-04 Eh
   gradient norm :     0.0038223 Eh/α   predicted    -0.2234549E-04 ( -39.09%)
   displ. norm   :     0.2705721 α      lambda       -0.5525914E-04
   maximum displ.:     0.1764047 α      in ANC's #3, #2, #1, ...

........................................................................
.............................. CYCLE   32 ..............................
........................................................................
   1    -83.3472636 -0.833473E+02  0.260E-02    1.30       0.0  T
   2    -83.3472636 -0.379783E-07  0.155E-02    1.30       1.0  T
   3    -83.3472557  0.798135E-05  0.108E-02    1.30       1.2  T
   4    -83.3472638 -0.810461E-05  0.110E-03    1.30      11.7  T
   5    -83.3472638 -0.508779E-07  0.506E-04    1.30      25.5  T
   6    -83.3472638 -0.113130E-07  0.278E-04    1.30      46.4  T
     SCC iter.                  ...        0 min,  0.016 sec
     gradient                   ...        0 min,  0.029 sec
 * total energy  :   -82.2755736 Eh     change       -0.4634471E-04 Eh
   gradient norm :     0.0016399 Eh/α   predicted    -0.2965430E-04 ( -36.01%)
   displ. norm   :     0.4247371 α      lambda       -0.4702223E-04
   maximum displ.:     0.2783227 α      in ANC's #3, #2, #6, ...

........................................................................
.............................. CYCLE   33 ..............................
........................................................................
   1    -83.3468709 -0.833469E+02  0.400E-02    1.30       0.0  T
   2    -83.3468708  0.127519E-06  0.239E-02    1.30       1.0  T
   3    -83.3468413  0.295176E-04  0.209E-02    1.30       1.0  T
   4    -83.3468713 -0.300422E-04  0.175E-03    1.30       7.4  T
   5    -83.3468714 -0.131745E-06  0.834E-04    1.30      15.5  T
   6    -83.3468715 -0.230350E-07  0.379E-04    1.30      34.0  T
     SCC iter.                  ...        0 min,  0.016 sec
     gradient                   ...        0 min,  0.028 sec
 * total energy  :   -82.2756254 Eh     change       -0.5181825E-04 Eh
   gradient norm :     0.0016115 Eh/α   predicted    -0.2539729E-04 ( -50.99%)
   displ. norm   :     0.2652904 α      lambda       -0.2731188E-04
   maximum displ.:     0.1764572 α      in ANC's #3, #2, #6, ...

........................................................................
.............................. CYCLE   34 ..............................
........................................................................
   1    -83.3472401 -0.833472E+02  0.241E-02    1.30       0.0  T
   2    -83.3472398  0.244198E-06  0.144E-02    1.30       1.0  T
   3    -83.3472216  0.182784E-04  0.164E-02    1.30       1.0  T
   4    -83.3472402 -0.186676E-04  0.103E-03    1.30      12.5  T
   5    -83.3472403 -0.430313E-07  0.483E-04    1.30      26.7  T
   6    -83.3472403 -0.545141E-08  0.244E-04    1.30      52.9  T
     SCC iter.                  ...        0 min,  0.016 sec
     gradient                   ...        0 min,  0.028 sec
 * total energy  :   -82.2756603 Eh     change       -0.3487734E-04 Eh
   gradient norm :     0.0014945 Eh/α   predicted    -0.1408402E-04 ( -59.62%)
   displ. norm   :     0.3265265 α      lambda       -0.3671068E-04
   maximum displ.:     0.2168382 α      in ANC's #2, #3, #6, ...

........................................................................
.............................. CYCLE   35 ..............................
........................................................................
   1    -83.3475800 -0.833476E+02  0.303E-02    1.30       0.0  T
   2    -83.3475794  0.645042E-06  0.183E-02    1.30       1.0  T
   3    -83.3475415  0.379126E-04  0.237E-02    1.30       1.0  T
   4    -83.3475803 -0.387877E-04  0.129E-03    1.30      10.0  T
   5    -83.3475803 -0.625133E-07  0.585E-04    1.30      22.1  T
   6    -83.3475803 -0.265339E-08  0.269E-04    1.30      48.0  T
     SCC iter.                  ...        0 min,  0.016 sec
     gradient                   ...        0 min,  0.028 sec
 * total energy  :   -82.2757069 Eh     change       -0.4662855E-04 Eh
   gradient norm :     0.0012143 Eh/α   predicted    -0.1922624E-04 ( -58.77%)
   displ. norm   :     0.4079397 α      lambda       -0.4241270E-04
   maximum displ.:     0.2720502 α      in ANC's #2, #3, #5, ...

........................................................................
.............................. CYCLE   36 ..............................
........................................................................
   1    -83.3472855 -0.833473E+02  0.395E-02    1.31       0.0  T
   2    -83.3472847  0.791781E-06  0.238E-02    1.31       1.0  T
   3    -83.3472312  0.535030E-04  0.280E-02    1.31       1.0  T
   4    -83.3472858 -0.545912E-04  0.183E-03    1.31       7.1  T
   5    -83.3472859 -0.151214E-06  0.767E-04    1.31      16.8  T
   6    -83.3472859 -0.740000E-08  0.385E-04    1.31      33.5  T
     SCC iter.                  ...        0 min,  0.016 sec
     gradient                   ...        0 min,  0.028 sec
 * total energy  :   -82.2757558 Eh     change       -0.4881270E-04 Eh
   gradient norm :     0.0030269 Eh/α   predicted    -0.2277959E-04 ( -53.33%)
   displ. norm   :     0.2363964 α      lambda       -0.2978427E-04
   maximum displ.:     0.1578927 α      in ANC's #2, #3, #5, ...

........................................................................
.............................. CYCLE   37 ..............................
........................................................................
   1    -83.3475874 -0.833476E+02  0.223E-02    1.31       0.0  T
   2    -83.3475875 -0.290509E-07  0.134E-02    1.31       1.0  T
   3    -83.3475858  0.171376E-05  0.508E-03    1.31       2.5  T
   4    -83.3475874 -0.166354E-05  0.139E-03    1.31       9.3  T
   5    -83.3475875 -0.104476E-06  0.449E-04    1.31      28.8  T
   6    -83.3475875 -0.258038E-08  0.205E-04    1.31      63.0  T
     SCC iter.                  ...        0 min,  0.016 sec
     gradient                   ...        0 min,  0.028 sec
 * total energy  :   -82.2757799 Eh     change       -0.2419149E-04 Eh
   gradient norm :     0.0011078 Eh/α   predicted    -0.1572579E-04 ( -34.99%)
   displ. norm   :     0.3705254 α      lambda       -0.2526773E-04
   maximum displ.:     0.2503577 α      in ANC's #2, #3, #8, ...

........................................................................
.............................. CYCLE   38 ..............................
........................................................................
   1    -83.3475522 -0.833476E+02  0.349E-02    1.31       0.0  T
   2    -83.3475523 -0.103457E-06  0.211E-02    1.31       1.0  T
   3    -83.3475510  0.130181E-05  0.451E-03    1.31       2.9  T
   4    -83.3475521 -0.110542E-05  0.220E-03    1.31       5.9  T
   5    -83.3475523 -0.271892E-06  0.812E-04    1.31      15.9  T
   6    -83.3475524 -0.199555E-07  0.394E-04    1.31      32.7  T
     SCC iter.                  ...        0 min,  0.016 sec
     gradient                   ...        0 min,  0.028 sec
 * total energy  :   -82.2758082 Eh     change       -0.2820962E-04 Eh
   gradient norm :     0.0014286 Eh/α   predicted    -0.1340592E-04 ( -52.48%)
   displ. norm   :     0.2304605 α      lambda       -0.1555910E-04
   maximum displ.:     0.1566289 α      in ANC's #2, #3, #1, ...

........................................................................
.............................. CYCLE   39 ..............................
........................................................................
   1    -83.3476344 -0.833476E+02  0.206E-02    1.31       0.0  T
   2    -83.3476336  0.858044E-06  0.131E-02    1.31       1.0  T
   3    -83.3476024  0.311696E-04  0.216E-02    1.32       1.0  T
   4    -83.3476346 -0.322125E-04  0.102E-03    1.31      12.6  T
   5    -83.3476346 -0.478866E-07  0.394E-04    1.31      32.8  T
   6    -83.3476346 -0.159829E-09  0.181E-04    1.31      71.4  T
     SCC iter.                  ...        0 min,  0.017 sec
     gradient                   ...        0 min,  0.028 sec
 * total energy  :   -82.2758282 Eh     change       -0.2000081E-04 Eh
   gradient norm :     0.0022876 Eh/α   predicted    -0.7966655E-05 ( -60.17%)
   displ. norm   :     0.2119781 α      lambda       -0.2522412E-04
   maximum displ.:     0.1432618 α      in ANC's #2, #3, #1, ...

........................................................................
.............................. CYCLE   40 ..............................
........................................................................
   1    -83.3474662 -0.833475E+02  0.194E-02    1.32       0.0  T
   2    -83.3474648  0.140772E-05  0.127E-02    1.32       1.0  T
   3    -83.3474334  0.314278E-04  0.222E-02    1.32       1.0  T
   4    -83.3474665 -0.331199E-04  0.102E-03    1.32      12.6  T
   5    -83.3474666 -0.627697E-07  0.410E-04    1.32      31.5  T
   6    -83.3474666  0.469015E-09  0.297E-04    1.32      43.5  T
     SCC iter.                  ...        0 min,  0.016 sec
     gradient                   ...        0 min,  0.028 sec
 * total energy  :   -82.2758507 Eh     change       -0.2254558E-04 Eh
   gradient norm :     0.0014211 Eh/α   predicted    -0.1318073E-04 ( -41.54%)
   displ. norm   :     0.6995399 α      lambda       -0.5346786E-04
   maximum displ.:     0.4668995 α      in ANC's #2, #3, #1, ...

........................................................................
.............................. CYCLE   41 ..............................
........................................................................
   1    -83.3462035 -0.833462E+02  0.650E-02    1.32       0.0  T
   2    -83.3461829  0.205569E-04  0.433E-02    1.32       1.0  T
   3    -83.3458356  0.347306E-03  0.748E-02    1.32       1.0  T
   4    -83.3462077 -0.372082E-03  0.298E-03    1.32       4.3  T
   5    -83.3462082 -0.444053E-06  0.132E-03    1.32       9.8  T
   6    -83.3462082  0.585158E-08  0.843E-04    1.32      15.3  T
   7    -83.3462082 -0.328404E-07  0.304E-04    1.32      42.4  T
     SCC iter.                  ...        0 min,  0.019 sec
     gradient                   ...        0 min,  0.028 sec
 * total energy  :   -82.2759017 Eh     change       -0.5102610E-04 Eh
   gradient norm :     0.0031948 Eh/α   predicted    -0.3255035E-04 ( -36.21%)
   displ. norm   :     0.1419007 α      lambda       -0.1680025E-04
   maximum displ.:     0.0870858 α      in ANC's #2, #3, #1, ...

........................................................................
.............................. CYCLE   42 ..............................
........................................................................
   1    -83.3469424 -0.833469E+02  0.163E-02    1.32       0.0  T
   2    -83.3469408  0.160076E-05  0.109E-02    1.32       1.2  T
   3    -83.3469198  0.210316E-04  0.188E-02    1.32       1.0  T
   4    -83.3469427 -0.229619E-04  0.811E-04    1.32      15.9  T
   5    -83.3469428 -0.389428E-07  0.363E-04    1.32      35.6  T
   6    -83.3469428 -0.243173E-08  0.248E-04    1.32      52.0  T
     SCC iter.                  ...        0 min,  0.016 sec
     gradient                   ...        0 min,  0.028 sec
 * total energy  :   -82.2759154 Eh     change       -0.1363867E-04 Eh
   gradient norm :     0.0020021 Eh/α   predicted    -0.8569597E-05 ( -37.17%)
   displ. norm   :     0.1490845 α      lambda       -0.1873705E-04
   maximum displ.:     0.0869443 α      in ANC's #2, #3, #1, ...
 * RMSD in coord.:     0.6456776 α      energy gain  -0.8396048E-03 Eh

generating ANC from model Hessian ...
Using Lindh-Hessian (1995)
 Shifting diagonal of input Hessian by    1.0177384228428435E-002
 Lowest  eigenvalues of input Hessian
    0.010000    0.000000    0.000000    0.000000    0.000000    0.000000
    0.000000    0.010272    0.010293    0.010313    0.010904    0.011883
    0.012442    0.013208    0.013472    0.013518    0.014876    0.015339
 Highest eigenvalues
    1.721132    1.889276    1.893086    1.911322    8.590328    8.648448


........................................................................
.............................. CYCLE   43 ..............................
........................................................................
   1    -83.3474013 -0.833474E+02  0.190E-02    1.32       0.0  T
   2    -83.3473998  0.148857E-05  0.121E-02    1.32       1.1  T
   3    -83.3473707  0.290728E-04  0.217E-02    1.32       1.0  T
   4    -83.3474016 -0.308712E-04  0.846E-04    1.32      15.3  T
   5    -83.3474016 -0.380668E-07  0.352E-04    1.32      36.7  T
   6    -83.3474016 -0.775628E-10  0.227E-04    1.32      56.8  T
     SCC iter.                  ...        0 min,  0.016 sec
     gradient                   ...        0 min,  0.028 sec
 * total energy  :   -82.2759304 Eh     change       -0.1506702E-04 Eh
   gradient norm :     0.0011498 Eh/α   predicted     0.0000000E+00 (-100.00%)
   displ. norm   :     0.0271138 α      lambda        0.2161828E-05
   maximum displ.:     0.0158376 α      in ANC's #1, #7, #6, ...

........................................................................
.............................. CYCLE   44 ..............................
........................................................................
   1    -83.3473497 -0.833473E+02  0.473E-03    1.32       0.0  T
   2    -83.3473496  0.260079E-07  0.298E-03    1.32       4.3  T
   3    -83.3473483  0.138848E-05  0.453E-03    1.32       2.8  T
   4    -83.3473497 -0.142692E-05  0.224E-04    1.32      57.5  T
   5    -83.3473497 -0.224078E-08  0.111E-04    1.32     115.9  T
   6    -83.3473497 -0.581409E-09  0.603E-05    1.32     214.0  T
     SCC iter.                  ...        0 min,  0.016 sec
     gradient                   ...        0 min,  0.028 sec
 * total energy  :   -82.2759366 Eh     change       -0.6216393E-05 Eh
   gradient norm :     0.0015900 Eh/α   predicted    -0.2517316E-05 ( -59.51%)
   displ. norm   :     0.1043563 α      lambda       -0.1481624E-04
   maximum displ.:     0.0554711 α      in ANC's #1, #7, #6, ...

........................................................................
.............................. CYCLE   45 ..............................
........................................................................
   1    -83.3473517 -0.833474E+02  0.171E-02    1.32       0.0  T
   2    -83.3473517  0.458808E-07  0.104E-02    1.32       1.2  T
   3    -83.3473450  0.667498E-05  0.983E-03    1.32       1.3  T
   4    -83.3473518 -0.678951E-05  0.804E-04    1.32      16.1  T
   5    -83.3473518 -0.285734E-07  0.333E-04    1.32      38.8  T
   6    -83.3473518 -0.279421E-08  0.189E-04    1.32      68.2  T
     SCC iter.                  ...        0 min,  0.016 sec
     gradient                   ...        0 min,  0.029 sec
 * total energy  :   -82.2759502 Eh     change       -0.1359980E-04 Eh
   gradient norm :     0.0022464 Eh/α   predicted    -0.7450844E-05 ( -45.21%)
   displ. norm   :     0.0482547 α      lambda       -0.6574687E-05
   maximum displ.:     0.0276863 α      in ANC's #1, #7, #4, ...

........................................................................
.............................. CYCLE   46 ..............................
........................................................................
   1    -83.3475585 -0.833476E+02  0.774E-03    1.32       0.0  T
   2    -83.3475585  0.268454E-07  0.464E-03    1.32       2.8  T
   3    -83.3475566  0.193090E-05  0.538E-03    1.32       2.4  T
   4    -83.3475586 -0.196775E-05  0.441E-04    1.32      29.3  T
   5    -83.3475586 -0.101064E-07  0.194E-04    1.32      66.5  T
   6    -83.3475586 -0.147845E-08  0.105E-04    1.32     123.5  T
     SCC iter.                  ...        0 min,  0.016 sec
     gradient                   ...        0 min,  0.028 sec
 * total energy  :   -82.2759548 Eh     change       -0.4537948E-05 Eh
   gradient norm :     0.0014854 Eh/α   predicted    -0.3347236E-05 ( -26.24%)
   displ. norm   :     0.0560136 α      lambda       -0.3273625E-05
   maximum displ.:     0.0346810 α      in ANC's #1, #4, #7, ...

........................................................................
.............................. CYCLE   47 ..............................
........................................................................
   1    -83.3477715 -0.833478E+02  0.864E-03    1.32       0.0  T
   2    -83.3477715  0.323236E-07  0.519E-03    1.32       2.5  T
   3    -83.3477689  0.254180E-05  0.620E-03    1.32       2.1  T
   4    -83.3477715 -0.256606E-05  0.857E-04    1.32      15.1  T
   5    -83.3477715 -0.481999E-07  0.263E-04    1.32      49.1  T
   6    -83.3477715 -0.364982E-08  0.130E-04    1.32      99.4  T
     SCC iter.                  ...        0 min,  0.016 sec
     gradient                   ...        0 min,  0.028 sec
 * total energy  :   -82.2759581 Eh     change       -0.3321089E-05 Eh
   gradient norm :     0.0015214 Eh/α   predicted    -0.1688528E-05 ( -49.16%)
   displ. norm   :     0.0324190 α      lambda       -0.2159408E-05
   maximum displ.:     0.0213193 α      in ANC's #1, #4, #2, ...

........................................................................
.............................. CYCLE   48 ..............................
........................................................................
   1    -83.3477687 -0.833478E+02  0.442E-03    1.32       0.0  T
   2    -83.3477686  0.591848E-07  0.282E-03    1.32       4.6  T
   3    -83.3477672  0.141505E-05  0.479E-03    1.32       2.7  T
   4    -83.3477687 -0.148948E-05  0.380E-04    1.32      34.0  T
   5    -83.3477687 -0.814411E-08  0.184E-04    1.32      70.3  T
   6    -83.3477687 -0.236469E-08  0.560E-05    1.32     230.4  T
     SCC iter.                  ...        0 min,  0.016 sec
     gradient                   ...        0 min,  0.028 sec
 * total energy  :   -82.2759608 Eh     change       -0.2659577E-05 Eh
   gradient norm :     0.0005961 Eh/α   predicted    -0.1089883E-05 ( -59.02%)
   displ. norm   :     0.0527285 α      lambda       -0.3349988E-05
   maximum displ.:     0.0318373 α      in ANC's #1, #4, #2, ...

   *** GEOMETRY OPTIMIZATION CONVERGED AFTER 48 ITERATIONS ***

------------------------------------------------------------------------
 total energy gain   :        -0.1777871 Eh     -111.5631 kcal/mol
 total RMSD          :         0.6743557 a0        0.3569 Å
 total power (kW/mol):        -9.7245803 (step) -177.4812 (real)
------------------------------------------------------------------------

 ANCopt (total)                0 d,  0 h,  0 min,  2.630 sec
 optimizer setup                ...        0 min,  0.000 sec (  0.003%)
 model hessian                  ...        0 min,  0.095 sec (  3.628%)
 ANC generation                 ...        0 min,  0.008 sec (  0.308%)
 coordinate transformation      ...        0 min,  0.001 sec (  0.027%)
 single point calculation       ...        0 min,  2.509 sec ( 95.395%)
 optimization log               ...        0 min,  0.010 sec (  0.375%)
 hessian update                 ...        0 min,  0.001 sec (  0.042%)
 rational function              ...        0 min,  0.004 sec (  0.145%)

================
 final structure:
================
60
 xtb: 6.5.0 (homebrew)
C            3.54454961369624      -37.76879468071638       15.94643069197309
C            3.72297167712450      -38.18390532860978       17.40517708054125
O            3.27867937999480      -37.13115739172390       18.25787951754389
C            2.83072695647041      -39.39814759621019       17.69379863399427
C            5.21307168870225      -38.40213884259964       17.85478429149517
C            5.65786688461346      -39.86124766017326       17.92452026673693
C            6.21382249328169      -37.61280494732303       17.00034937051920
O            5.24469246898316      -37.83107257326655       19.16114691444290
B            4.14593245158304      -37.02510021097641       19.31524759726151
C            3.89983167910468      -36.13289217420992       20.55249301147758
C            4.92846072558652      -35.89616443508597       21.45064433359314
C            4.95464667910012      -35.07255150107697       22.55276481414446
H            5.90128291160517      -34.92681771781756       23.05319419979215
C            3.83368423090708      -34.16885189343947       23.02359635751929
H            4.05742572259116      -33.80916706225486       24.02937677405854
C            2.46950155060108      -34.80394696790383       23.05030306804846
B            1.72746979268914      -34.87098566352827       24.42041871196085
O            2.25287045400964      -34.38973325083521       25.58882031280528
C            1.40662740833305      -34.78076044347041       26.66846822870832
C            1.27962797783005      -33.62695337472275       27.66051961178151
C            2.09082363997791      -35.96624157710814       27.36135692366908
C            0.07136364448245      -35.18499761101385       25.94413275104851
C           -0.94894375418306      -34.04074917501855       25.89227908927539
C           -0.60793074471072      -36.43571173694835       26.49756159791520
O            0.49245076688110      -35.42703578297235       24.60191831515800
C            1.93133215376722      -35.33289366086929       21.95195521403102
C            2.57093191003201      -35.36048355061769       20.60228982583216
H            1.89251450098876      -35.84066062607323       19.89471568091723
C            2.95140927707106      -34.00466323712061       20.04040519447841
C            3.66919699659703      -33.04490580896418       20.70589655600563
C            4.05338226106806      -33.04978826375261       22.03369183497830
H            4.71737292153321      -32.26521553180777       22.36773533953128
H            2.48262657558590      -37.66614178255053       15.73693537842710
H            3.96160713894992      -38.52504493909919       15.28673915993861
H            4.01996972011246      -36.81342112178256       15.74891877588113
H            1.79526572078951      -39.11493767273772       17.51901550989574
H            2.92641843910836      -39.69512743959071       18.73520497844181
H            3.08270895931165      -40.23363705950927       17.04746805274609
H            5.55578234807463      -40.33245066636791       16.95056826306235
H            5.07875994066377      -40.41317201102720       18.65764972615537
H            6.70212992834821      -39.89670390866043       18.22502952097486
H            6.27793046013451      -38.01714432484017       15.99460640594797
H            7.19257829463615      -37.67492597331610       17.47056735170350
H            5.92763390363757      -36.56466473652285       16.95951012738005
H            5.84130632532916      -36.44545321399333       21.24517336166238
H            2.25295784305551      -33.43831595587569       28.10685990761011
H            0.57592203772529      -33.88392528187522       28.44760299704889
H            0.95480535032102      -32.71742618450786       27.16595076742360
H            3.07887872882422      -35.65124337212488       27.68916940869524
H            2.21625340480279      -36.78797415060019       26.66076146401490
H            1.52190379575336      -36.30009206636878       28.22382265419255
H           -1.34723069837638      -33.82419013611654       26.87901584906366
H           -1.76509955944901      -34.33655796302248       25.23728383923628
H           -0.49113326628912      -33.14777319357544       25.47424774294348
H           -0.84840415877679      -36.29989498905648       27.54851086236418
H            0.02453599580192      -37.30932282881552       26.37924764054809
H           -1.52825735956757      -36.60956726005413       25.94567340223543
H            0.95655855390431      -35.79452599740109       22.03306555361458
H            2.80456653223792      -33.89358906640091       18.97673073429645
H            3.96512872504385      -32.17322642597566       20.13061845326355

 Bond Distances (Angstroems)
 ---------------------------
C1-C2=1.5271         C1-H33=1.0872        C1-H34=1.0868        C1-H35=1.0853        C2-C1=1.5271         C2-O3=1.4258         
C2-C4=1.5342         C2-C5=1.5717         O3-C2=1.4258         O3-B9=1.3716         C4-C2=1.5342         C4-H36=1.0876        
C4-H37=1.0871        C4-H38=1.0859        C5-C2=1.5717         C5-C6=1.5270         C5-C7=1.5345         C5-O8=1.4261         
C6-C5=1.5270         C6-H39=1.0868        C6-H40=1.0851        C6-H41=1.0872        C7-C5=1.5345         C7-H42=1.0859        
C7-H43=1.0876        C7-H44=1.0873        O8-C5=1.4261         O8-B9=1.3714         B9-O3=1.3716         B9-O8=1.3714         
B9-C10=1.5451        C10-B9=1.5451        C10-C11=1.3859       C10-C27=1.5379       C11-C10=1.3859       C11-C12=1.3761       
C11-H45=1.0850       C12-C11=1.3761       C12-H13=1.0806       C12-C14=1.5149       H13-C12=1.0806       C14-C12=1.5149       
C14-H15=1.0913       C14-C16=1.5050       C14-C31=1.5101       H15-C14=1.0913       C16-C14=1.5050       C16-B17=1.5596       
C16-C26=1.3326       B17-C16=1.5596       B17-O18=1.3685       B17-O25=1.3665       O18-B17=1.3685       O18-C19=1.4264       
C19-O18=1.4264       C19-C20=1.5269       C19-C21=1.5341       C19-C22=1.5719       C20-C19=1.5269       C20-H46=1.0873       
C20-H47=1.0866       C20-H48=1.0851       C21-C19=1.5341       C21-H49=1.0876       C21-H50=1.0871       C21-H51=1.0858       
C22-C19=1.5719       C22-C23=1.5340       C22-C24=1.5271       C22-O25=1.4274       C23-C22=1.5340       C23-H52=1.0859       
C23-H53=1.0875       C23-H54=1.0871       C24-C22=1.5271       C24-H55=1.0866       C24-H56=1.0850       C24-H57=1.0871       
O25-B17=1.3665       O25-C22=1.4274       C26-C16=1.3326       C26-C27=1.4938       C26-H58=1.0816       C27-C10=1.5379       
C27-C26=1.4938       C27-H28=1.0916       C27-C29=1.5162       H28-C27=1.0916       C29-C27=1.5162       C29-C30=1.3709       
C29-H59=1.0795       C30-C29=1.3709       C30-C31=1.3823       C30-H60=1.0855       C31-C14=1.5101       C31-C30=1.3823       
C31-H32=1.0808       H32-C31=1.0808       H33-C1=1.0872        H34-C1=1.0868        H35-C1=1.0853        H36-C4=1.0876        
H37-C4=1.0871        H38-C4=1.0859        H39-C6=1.0868        H40-C6=1.0851        H41-C6=1.0872        H42-C7=1.0859        
H43-C7=1.0876        H44-C7=1.0873        H45-C11=1.0850       H46-C20=1.0873       H47-C20=1.0866       H48-C20=1.0851       
H49-C21=1.0876       H50-C21=1.0871       H51-C21=1.0858       H52-C23=1.0859       H53-C23=1.0875       H54-C23=1.0871       
H55-C24=1.0866       H56-C24=1.0850       H57-C24=1.0871       H58-C26=1.0816       H59-C29=1.0795       H60-C30=1.0855       
 C  H  Rav=1.0861 sigma=0.0025  Rmin=1.0795  Rmax=1.0916    32
 C  B  Rav=1.5524 sigma=0.0072  Rmin=1.5451  Rmax=1.5596     2
 C  C  Rav=1.4912 sigma=0.0708  Rmin=1.3326  Rmax=1.5719    21
 O  B  Rav=1.3695 sigma=0.0021  Rmin=1.3665  Rmax=1.3716     4
 O  C  Rav=1.4264 sigma=0.0006  Rmin=1.4258  Rmax=1.4274     4

 selected bond angles (degree)
 --------------------
H33-C1-C2=108.90               H34-C1-C2=110.23               H34-C1-H33=108.88              H35-C1-C2=111.22               
H35-C1-H33=108.04              H35-C1-H34=109.51              O3-C2-C1=109.52                C4-C2-C1=109.08                
C4-C2-O3=106.90                C5-C2-C1=114.95                C5-C2-O3=103.11                C5-C2-C4=112.81                
B9-O3-C2=108.73                H36-C4-C2=108.50               H37-C4-C2=110.20               H37-C4-H36=107.99              
H38-C4-C2=111.22               H38-C4-H36=109.00              H38-C4-H37=109.85              C6-C5-C2=114.96                
C7-C5-C2=112.81                C7-C5-C6=109.09                O8-C5-C2=103.15                O8-C5-C6=109.53                
O8-C5-C7=106.84                H39-C6-C5=110.24               H40-C6-C5=111.19               H40-C6-H39=109.56              
H41-C6-C5=108.88               H41-C6-H39=108.89              H41-C6-H40=108.02              H42-C7-C5=111.27               
H43-C7-C5=108.47               H43-C7-H42=109.03              H44-C7-C5=110.19               H44-C7-H42=109.86              
H44-C7-H43=107.95              B9-O8-C5=108.69                O8-B9-O3=111.99                C10-B9-O3=124.14               
C10-B9-O8=123.85               C11-C10-B9=119.96              C27-C10-B9=116.97              C27-C10-C11=122.31             

 selected dihedral angles (degree)
 ---------------------------------
O3-C2-C1-H33=294.31           O3-C2-C1-H34=174.92           O3-C2-C1-H35= 53.26           C4-C2-C1-H33= 50.98           
C4-C2-C1-H34=291.60           C4-C2-C1-H35=169.93           C5-C2-C1-H33=178.81           C5-C2-C1-H34= 59.43           
C5-C2-C1-H35=297.76           B9-O3-C2-C1=220.19            B9-O3-C2-C4=102.14            B9-O3-C2-C5=343.01            
H36-C4-C2-C1=299.35           H36-C4-C2-O3= 57.68           H36-C4-C2-C5=170.33           H37-C4-C2-C1=181.31           
H37-C4-C2-O3=299.64           H37-C4-C2-C5= 52.28           H38-C4-C2-C1= 59.24           H38-C4-C2-O3=177.57           
H38-C4-C2-C5=290.21           C6-C5-C2-C1=258.82            C6-C5-C2-O3=139.69            C6-C5-C2-C4= 24.74            
C7-C5-C2-C1= 24.76            C7-C5-C2-O3=265.62            C7-C5-C2-C4=150.68            O8-C5-C2-C1=139.65            
O8-C5-C2-O3= 20.51            O8-C5-C2-C4=265.57            H39-C6-C5-C2= 59.54           H39-C6-C5-C7=291.70           
H39-C6-C5-O8=175.09           H40-C6-C5-C2=297.82           H40-C6-C5-C7=169.99           H40-C6-C5-O8= 53.37           
H41-C6-C5-C2=178.94           H41-C6-C5-C7= 51.10           H41-C6-C5-O8=294.49           H42-C7-C5-C2=290.29           
H42-C7-C5-C6= 59.32           H42-C7-C5-O8=177.64           H43-C7-C5-C2=170.36           H43-C7-C5-C6=299.40           
H43-C7-C5-O8= 57.72           H44-C7-C5-C2= 52.40           H44-C7-C5-C6=181.43           H44-C7-C5-O8=299.75           
B9-O8-C5-C2=342.98            B9-O8-C5-C6=220.12            B9-O8-C5-C7=102.09            O8-B9-O3-C2=  7.25            
C10-B9-O3-C2=188.76           O3-B9-O8-C5=  7.29            C10-B9-O8-C5=185.79           C11-C10-B9-O3=191.85          
C11-C10-B9-O8= 13.54          C27-C10-B9-O3=  2.13          C27-C10-B9-O8=183.82          
           -------------------------------------------------
          |                Final Singlepoint                |
           -------------------------------------------------

          ...................................................
          :                      SETUP                      :
          :.................................................:
          :  # basis functions                 144          :
          :  # atomic orbitals                 144          :
          :  # shells                           88          :
          :  # electrons                       150          :
          :  max. iterations                   250          :
          :  Hamiltonian                  GFN2-xTB          :
          :  restarted?                      false          :
          :  GBSA solvation                  false          :
          :  PC potential                    false          :
          :  electronic temp.          300.0000000     K    :
          :  accuracy                    1.0000000          :
          :  -> integral cutoff          0.2500000E+02      :
          :  -> integral neglect         0.1000000E-07      :
          :  -> SCF convergence          0.1000000E-05 Eh   :
          :  -> wf. convergence          0.1000000E-03 e    :
          :  Broyden damping             0.4000000          :
          ...................................................

 iter      E             dE          RMSdq      gap      omega  full diag
   1    -83.3477687 -0.833478E+02  0.276E-05    1.32       0.0  T
   2    -83.3477687  0.264038E-10  0.272E-05    1.32     474.3  T
   3    -83.3477687 -0.139977E-10  0.230E-05    1.32     561.8  T

   *** convergence criteria satisfied after 3 iterations ***

         #    Occupation            Energy/Eh            Energy/eV
      -------------------------------------------------------------
         1        2.0000           -0.6864358             -18.6789
       ...           ...                  ...                  ...
        69        2.0000           -0.3994343             -10.8692
        70        2.0000           -0.3985124             -10.8441
        71        2.0000           -0.3961339             -10.7794
        72        2.0000           -0.3951286             -10.7520
        73        2.0000           -0.3910273             -10.6404
        74        2.0000           -0.3650693              -9.9340
        75        2.0000           -0.3270680              -8.9000 (HOMO)
        76                         -0.2786207              -7.5817 (LUMO)
        77                         -0.2178561              -5.9282
        78                         -0.1855042              -5.0478
        79                         -0.1478900              -4.0243
        80                         -0.0953728              -2.5952
       ...                                ...                  ...
       144                          0.6782930              18.4573
      -------------------------------------------------------------
                  HL-Gap            0.0484473 Eh            1.3183 eV
             Fermi-level           -0.3028443 Eh           -8.2408 eV

 SCC (total)                   0 d,  0 h,  0 min,  0.043 sec
 SCC setup                      ...        0 min,  0.000 sec (  0.534%)
 Dispersion                     ...        0 min,  0.000 sec (  0.895%)
 classical contributions        ...        0 min,  0.000 sec (  0.402%)
 integral evaluation            ...        0 min,  0.006 sec ( 13.978%)
 iterations                     ...        0 min,  0.008 sec ( 19.538%)
 molecular gradient             ...        0 min,  0.027 sec ( 63.857%)
 printout                       ...        0 min,  0.000 sec (  0.784%)

         :::::::::::::::::::::::::::::::::::::::::::::::::::::
         ::                     SUMMARY                     ::
         :::::::::::::::::::::::::::::::::::::::::::::::::::::
         :: total energy             -82.275960766473 Eh    ::
         :: gradient norm              0.000595839769 Eh/a0 ::
         :: HOMO-LUMO gap              1.318316820619 eV    ::
         ::.................................................::
         :: SCC energy               -83.347768727932 Eh    ::
         :: -> isotropic ES            0.147476126996 Eh    ::
         :: -> anisotropic ES          0.012535460161 Eh    ::
         :: -> anisotropic XC          0.027711146145 Eh    ::
         :: -> dispersion             -0.062356844349 Eh    ::
         :: repulsion energy           1.070902383393 Eh    ::
         :: add. restraining           0.000156109248 Eh    ::
         :: total charge              -0.000000000000 e     ::
         :::::::::::::::::::::::::::::::::::::::::::::::::::::

           -------------------------------------------------
          |                Property Printout                |
           -------------------------------------------------

    * Orbital Energies and Occupations

         #    Occupation            Energy/Eh            Energy/eV
      -------------------------------------------------------------
         1        2.0000           -0.6864358             -18.6789
       ...           ...                  ...                  ...
        63        2.0000           -0.4358631             -11.8604
        64        2.0000           -0.4301122             -11.7039
        65        2.0000           -0.4218121             -11.4781
        66        2.0000           -0.4193876             -11.4121
        67        2.0000           -0.4176387             -11.3645
        68        2.0000           -0.4138441             -11.2613
        69        2.0000           -0.3994343             -10.8692
        70        2.0000           -0.3985124             -10.8441
        71        2.0000           -0.3961339             -10.7794
        72        2.0000           -0.3951286             -10.7520
        73        2.0000           -0.3910273             -10.6404
        74        2.0000           -0.3650693              -9.9340
        75        2.0000           -0.3270680              -8.9000 (HOMO)
        76                         -0.2786207              -7.5817 (LUMO)
        77                         -0.2178561              -5.9282
        78                         -0.1855042              -5.0478
        79                         -0.1478900              -4.0243
        80                         -0.0953728              -2.5952
        81                         -0.0864395              -2.3521
        82                          0.0103303               0.2811
        83                          0.0141213               0.3843
        84                          0.0296298               0.8063
        85                          0.0306592               0.8343
        86                          0.0576260               1.5681
       ...                                ...                  ...
       144                          0.6782930              18.4573
      -------------------------------------------------------------
                  HL-Gap            0.0484473 Eh            1.3183 eV
             Fermi-level           -0.3028443 Eh           -8.2408 eV

     #   Z          covCN         q      C6AA      α(0)
     1   6 C        3.755    -0.117    22.786     6.806
     2   6 C        3.859     0.130    18.443     6.108
     3   8 O        1.638    -0.376    20.403     6.097
     4   6 C        3.755    -0.116    22.768     6.804
     5   6 C        3.859     0.130    18.442     6.107
     6   6 C        3.755    -0.117    22.795     6.808
     7   6 C        3.755    -0.115    22.758     6.802
     8   8 O        1.638    -0.376    20.397     6.096
     9   5 B        2.659     0.430    15.590     6.648
    10   6 C        2.883    -0.084    30.092     8.993
    11   6 C        2.892    -0.034    28.834     8.804
    12   6 C        2.959    -0.029    28.732     8.792
    13   1 H        0.926     0.030     2.591     2.517
    14   6 C        3.862    -0.012    20.744     6.477
    15   1 H        0.924     0.049     2.332     2.388
    16   6 C        2.865    -0.084    30.085     8.991
    17   5 B        2.661     0.431    15.572     6.643
    18   8 O        1.638    -0.372    20.314     6.084
    19   6 C        3.860     0.129    18.457     6.110
    20   6 C        3.755    -0.117    22.798     6.808
    21   6 C        3.755    -0.116    22.780     6.805
    22   6 C        3.860     0.129    18.457     6.110
    23   6 C        3.755    -0.116    22.784     6.806
    24   6 C        3.755    -0.118    22.806     6.809
    25   8 O        1.638    -0.370    20.282     6.079
    26   6 C        2.898    -0.025    28.638     8.774
    27   6 C        3.858    -0.014    20.786     6.484
    28   1 H        0.924     0.048     2.348     2.396
    29   6 C        2.910    -0.028    28.707     8.786
    30   6 C        2.888    -0.034    28.854     8.807
    31   6 C        2.961    -0.025    28.616     8.774
    32   1 H        0.926     0.031     2.575     2.509
    33   1 H        0.925     0.054     2.276     2.359
    34   1 H        0.925     0.039     2.466     2.456
    35   1 H        0.925     0.051     2.310     2.377
    36   1 H        0.925     0.051     2.303     2.373
    37   1 H        0.925     0.043     2.404     2.425
    38   1 H        0.925     0.041     2.429     2.437
    39   1 H        0.925     0.039     2.462     2.454
    40   1 H        0.925     0.052     2.297     2.370
    41   1 H        0.925     0.054     2.277     2.360
    42   1 H        0.925     0.042     2.426     2.436
    43   1 H        0.925     0.051     2.308     2.376
    44   1 H        0.925     0.042     2.420     2.433
    45   1 H        0.925     0.036     2.504     2.474
    46   1 H        0.925     0.054     2.270     2.356
    47   1 H        0.925     0.040     2.455     2.450
    48   1 H        0.925     0.052     2.298     2.370
    49   1 H        0.925     0.052     2.297     2.370
    50   1 H        0.925     0.044     2.398     2.422
    51   1 H        0.925     0.042     2.420     2.433
    52   1 H        0.925     0.043     2.414     2.430
    53   1 H        0.925     0.052     2.289     2.366
    54   1 H        0.925     0.044     2.400     2.423
    55   1 H        0.925     0.040     2.452     2.449
    56   1 H        0.925     0.052     2.292     2.368
    57   1 H        0.925     0.054     2.266     2.354
    58   1 H        0.925     0.037     2.488     2.467
    59   1 H        0.926     0.033     2.545     2.495
    60   1 H        0.925     0.026     2.640     2.541

 Mol. C6AA /au·bohr⁶  :      33350.733955
 Mol. C8AA /au·bohr⁸  :     773805.281731
 Mol. α(0) /au        :        277.645194


Wiberg/Mayer (AO) data.
largest (>0.10) Wiberg bond orders for each atom

 ---------------------------------------------------------------------------
     #   Z sym  total        # sym  WBO       # sym  WBO       # sym  WBO
 ---------------------------------------------------------------------------
     1   6 C    3.994 --     2 C    0.996    34 H    0.985    33 H    0.983
                            35 H    0.983
     2   6 C    3.944 --     1 C    0.996     4 C    0.990     3 O    0.955
                             5 C    0.937
     3   8 O    2.219 --     9 B    1.113     2 C    0.955
     4   6 C    3.994 --     2 C    0.990    38 H    0.985    37 H    0.984
                            36 H    0.983
     5   6 C    3.943 --     6 C    0.996     7 C    0.990     8 O    0.955
                             2 C    0.937
     6   6 C    3.994 --     5 C    0.996    39 H    0.985    41 H    0.983
                            40 H    0.982
     7   6 C    3.994 --     5 C    0.990    42 H    0.985    44 H    0.984
                            43 H    0.983
     8   8 O    2.219 --     9 B    1.114     5 C    0.955
     9   5 B    3.387 --     8 O    1.114     3 O    1.113    10 C    1.030
    10   6 C    3.945 --    11 C    1.450     9 B    1.030    27 C    0.945
                            29 C    0.225    31 C    0.165
    11   6 C    3.991 --    12 C    1.482    10 C    1.450    45 H    0.960
    12   6 C    3.954 --    11 C    1.482    13 H    0.972    14 C    0.964
                            31 C    0.294    29 C    0.157
    13   1 H    0.999 --    12 C    0.972
    14   6 C    3.992 --    16 C    0.996    31 C    0.978    15 H    0.968
                            12 C    0.964
    15   1 H    0.997 --    14 C    0.968
    16   6 C    3.977 --    26 C    1.855    17 B    1.000    14 C    0.996
    17   5 B    3.376 --    25 O    1.132    18 O    1.127    16 C    1.000
    18   8 O    2.233 --    17 B    1.127    19 C    0.953
    19   6 C    3.943 --    20 C    0.997    21 C    0.990    18 O    0.953
                            22 C    0.936
    20   6 C    3.994 --    19 C    0.997    47 H    0.985    46 H    0.983
                            48 H    0.982
    21   6 C    3.994 --    19 C    0.990    51 H    0.984    50 H    0.984
                            49 H    0.983
    22   6 C    3.943 --    24 C    0.996    23 C    0.991    25 O    0.953
                            19 C    0.936
    23   6 C    3.995 --    22 C    0.991    52 H    0.984    54 H    0.984
                            53 H    0.983
    24   6 C    3.994 --    22 C    0.996    55 H    0.984    57 H    0.983
                            56 H    0.982
    25   8 O    2.236 --    17 B    1.132    22 C    0.953
    26   6 C    3.987 --    16 C    1.855    27 C    1.011    58 H    0.966
    27   6 C    3.993 --    26 C    1.011    29 C    0.981    28 H    0.970
                            10 C    0.945
    28   1 H    0.998 --    27 C    0.970
    29   6 C    3.959 --    30 C    1.517    27 C    0.981    59 H    0.973
                            10 C    0.225    12 C    0.157
    30   6 C    3.993 --    29 C    1.517    31 C    1.441    60 H    0.962
    31   6 C    3.938 --    30 C    1.441    14 C    0.978    32 H    0.973
                            12 C    0.294    10 C    0.165
    32   1 H    0.999 --    31 C    0.973
    33   1 H    0.997 --     1 C    0.983
    34   1 H    0.998 --     1 C    0.985
    35   1 H    0.997 --     1 C    0.983
    36   1 H    0.997 --     4 C    0.983
    37   1 H    0.998 --     4 C    0.984
    38   1 H    0.998 --     4 C    0.985
    39   1 H    0.998 --     6 C    0.985
    40   1 H    0.997 --     6 C    0.982
    41   1 H    0.997 --     6 C    0.983
    42   1 H    0.998 --     7 C    0.985
    43   1 H    0.997 --     7 C    0.983
    44   1 H    0.998 --     7 C    0.984
    45   1 H    0.998 --    11 C    0.960
    46   1 H    0.997 --    20 C    0.983
    47   1 H    0.998 --    20 C    0.985
    48   1 H    0.997 --    20 C    0.982
    49   1 H    0.997 --    21 C    0.983
    50   1 H    0.998 --    21 C    0.984
    51   1 H    0.998 --    21 C    0.984
    52   1 H    0.998 --    23 C    0.984
    53   1 H    0.997 --    23 C    0.983
    54   1 H    0.998 --    23 C    0.984
    55   1 H    0.998 --    24 C    0.984
    56   1 H    0.997 --    24 C    0.982
    57   1 H    0.997 --    24 C    0.983
    58   1 H    0.998 --    26 C    0.966
    59   1 H    0.998 --    29 C    0.973
    60   1 H    0.999 --    30 C    0.962
 ---------------------------------------------------------------------------

Topologies differ in total number of bonds
Writing topology from bond orders to xtbtopo.mol

molecular dipole:
                 x           y           z       tot (Debye)
 q only:       -0.239      -0.285       0.174
   full:       -0.046      -0.331       0.033       0.853
molecular quadrupole (traceless):
                xx          xy          yy          xz          yz          zz
 q only:      -38.102      20.107      26.435     -24.940     -26.513      11.667
  q+dip:      -33.608       2.374      35.030     -14.304     -13.191      -1.422
   full:      -34.066       1.230      36.564     -15.829     -14.525      -2.499

           -------------------------------------------------
          |                Geometry Summary                 |
           -------------------------------------------------

      molecular mass/u    :      382.1099696
   center of mass at/Å    :        2.9411346     -35.9301876      21.8335646
  moments of inertia/u·Å² :        0.1267277E+04   0.6740361E+04   0.7040259E+04
rotational constants/cm⁻¹ :        0.1330224E-01   0.2500998E-02   0.2394462E-02

 * 55 selected distances

     #   Z          #   Z                                           value/Å
     1   6 C        2   6 C                                       1.5271191
     2   6 C        3   8 O                                       1.4257544
     2   6 C        4   6 C                                       1.5342059
     5   6 C        6   6 C                                       1.5269921
     5   6 C        7   6 C                                       1.5344737
     5   6 C        8   8 O                                       1.4260786
     3   8 O        9   5 B                                       1.3716427
     8   8 O        9   5 B                                       1.3713542
     9   5 B       10   6 C                                       1.5451141
    10   6 C       11   6 C                                       1.3859271
    11   6 C       12   6 C                                       1.3761155
    12   6 C       13   1 H                                       1.0806425
    14   6 C       15   1 H                                       1.0913422
    16   6 C       17   5 B                                       1.5595905 (max)
    17   5 B       18   8 O                                       1.3685074
    18   8 O       19   6 C                                       1.4264184
    19   6 C       20   6 C                                       1.5269466
    19   6 C       21   6 C                                       1.5341399
    22   6 C       23   6 C                                       1.5339560
    22   6 C       24   6 C                                       1.5270922
    17   5 B       25   8 O                                       1.3665307
    22   6 C       25   8 O                                       1.4273881
    16   6 C       26   6 C                                       1.3325837
    27   6 C       28   1 H                                       1.0915501
    29   6 C       30   6 C                                       1.3708511
    30   6 C       31   6 C                                       1.3822673
    31   6 C       32   1 H                                       1.0807512
     1   6 C       33   1 H                                       1.0872473
     1   6 C       34   1 H                                       1.0867587
     1   6 C       35   1 H                                       1.0852530
     4   6 C       36   1 H                                       1.0876292
     4   6 C       37   1 H                                       1.0871436
     4   6 C       38   1 H                                       1.0859471
     6   6 C       39   1 H                                       1.0867549
     6   6 C       40   1 H                                       1.0851103
     6   6 C       41   1 H                                       1.0872205
     7   6 C       42   1 H                                       1.0858726
     7   6 C       43   1 H                                       1.0876245
     7   6 C       44   1 H                                       1.0872764
    11   6 C       45   1 H                                       1.0849994
    20   6 C       46   1 H                                       1.0872787
    20   6 C       47   1 H                                       1.0866173
    20   6 C       48   1 H                                       1.0850567
    21   6 C       49   1 H                                       1.0876295
    21   6 C       50   1 H                                       1.0871114
    21   6 C       51   1 H                                       1.0858054
    23   6 C       52   1 H                                       1.0859005
    23   6 C       53   1 H                                       1.0874889
    23   6 C       54   1 H                                       1.0870819
    24   6 C       55   1 H                                       1.0866316
    24   6 C       56   1 H                                       1.0849926
    24   6 C       57   1 H                                       1.0871098
    26   6 C       58   1 H                                       1.0816039
    29   6 C       59   1 H                                       1.0794924 (min)
    30   6 C       60   1 H                                       1.0855163

 * 5 distinct bonds (by element types)

   Z      Z             #   av. dist./Å        max./Å        min./Å
   1 H    6 C          32     1.0860763     1.0915501     1.0794924
   5 B    6 C           2     1.5523523     1.5595905     1.5451141
   6 C    6 C          13     1.4686669     1.5344737     1.3325837
   5 B    8 O           4     1.3695087     1.3716427     1.3665307
   6 C    8 O           4     1.4264099     1.4273881     1.4257544


optimized geometry written to: xtbopt.xyz


           -------------------------------------------------
          | TOTAL ENERGY              -82.275960766473 Eh   |
          | GRADIENT NORM               0.000595839769 Eh/α |
          | HOMO-LUMO GAP               1.318316820619 eV   |
           -------------------------------------------------

------------------------------------------------------------------------
 * finished run on 2022/07/09 at 18:33:18.578     
------------------------------------------------------------------------
 total:
 * wall-time:     0 d,  0 h,  0 min,  2.757 sec
 *  cpu-time:     0 d,  0 h,  0 min,  2.754 sec
 * ratio c/w:     0.999 speedup
 SCF:
 * wall-time:     0 d,  0 h,  0 min,  0.071 sec
 *  cpu-time:     0 d,  0 h,  0 min,  0.071 sec
 * ratio c/w:     1.000 speedup
 ANC optimizer:
 * wall-time:     0 d,  0 h,  0 min,  2.674 sec
 *  cpu-time:     0 d,  0 h,  0 min,  2.671 sec
 * ratio c/w:     0.999 speedup

