      -----------------------------------------------------------      
     |                   =====================                   |     
     |                           x T B                           |     
     |                   =====================                   |     
     |                         S. Grimme                         |     
     |          Mulliken Center for Theoretical Chemistry        |     
     |                    University of Bonn                     |     
      -----------------------------------------------------------      

   * xtb version 6.5.0 (homebrew) compiled by 'nhattrup@GPGGRP-SHANNON.CHEME.CMU.EDU' on 

   xtb is free software: you can redistribute it and/or modify it under
   the terms of the GNU Lesser General Public License as published by
   the Free Software Foundation, either version 3 of the License, or
   (at your option) any later version.
   
   xtb is distributed in the hope that it will be useful,
   but WITHOUT ANY WARRANTY; without even the implied warranty of
   MERCHANTABILITY or FITNESS FOR A PARTICULAR PURPOSE.  See the
   GNU Lesser General Public License for more details.
   
   Cite this work as:
   * C. Bannwarth, E. Caldeweyher, S. Ehlert, A. Hansen, P. Pracht,
     J. Seibert, S. Spicher, S. Grimme, WIREs Comput. Mol. Sci., 2020, 11,
     e01493. DOI: 10.1002/wcms.1493
   
   for GFN2-xTB:
   * C. Bannwarth, S. Ehlert and S. Grimme., J. Chem. Theory Comput., 2019,
     15, 1652-1671. DOI: 10.1021/acs.jctc.8b01176
   for GFN1-xTB:
   * S. Grimme, C. Bannwarth, P. Shushkov, J. Chem. Theory Comput., 2017,
     13, 1989-2009. DOI: 10.1021/acs.jctc.7b00118
   for GFN0-xTB:
   * P. Pracht, E. Caldeweyher, S. Ehlert, S. Grimme, ChemRxiv, 2019, preprint.
     DOI: 10.26434/chemrxiv.8326202.v1
   for GFN-FF:
   * S. Spicher and S. Grimme, Angew. Chem. Int. Ed., 2020, 59, 15665-15673.
     DOI: 10.1002/anie.202004239
   
   for ALPB and GBSA implicit solvation:
   * S. Ehlert, M. Stahn, S. Spicher, S. Grimme, J. Chem. Theory Comput.,
     2021, 17, 4250-4261. DOI: 10.1021/acs.jctc.1c00471
   
   for DFT-D4:
   * E. Caldeweyher, C. Bannwarth and S. Grimme, J. Chem. Phys., 2017,
     147, 034112. DOI: 10.1063/1.4993215
   * E. Caldeweyher, S. Ehlert, A. Hansen, H. Neugebauer, S. Spicher,
     C. Bannwarth and S. Grimme, J. Chem. Phys., 2019, 150, 154122.
     DOI: 10.1063/1.5090222
   * E. Caldeweyher, J.-M. Mewes, S. Ehlert and S. Grimme, Phys. Chem. Chem. Phys.
     2020, 22, 8499-8512. DOI: 10.1039/D0CP00502A
   
   for sTDA-xTB:
   * S. Grimme and C. Bannwarth, J. Chem. Phys., 2016, 145, 054103.
     DOI: 10.1063/1.4959605
   
   in the mass-spec context:
   * V. Asgeirsson, C. Bauer and S. Grimme, Chem. Sci., 2017, 8, 4879.
     DOI: 10.1039/c7sc00601b
   * J. Koopman and S. Grimme, ACS Omega 2019, 4, 12, 15120-15133.
     DOI: 10.1021/acsomega.9b02011
   
   for metadynamics refer to:
   * S. Grimme, J. Chem. Theory Comput., 2019, 155, 2847-2862
     DOI: 10.1021/acs.jctc.9b00143
   
   for SPH calculations refer to:
   * S. Spicher and S. Grimme, J. Chem. Theory Comput., 2021, 17, 1701-1714
     DOI: 10.1021/acs.jctc.0c01306
   
   with help from (in alphabetical order)
   P. Atkinson, C. Bannwarth, F. Bohle, G. Brandenburg, E. Caldeweyher
   M. Checinski, S. Dohm, S. Ehlert, S. Ehrlich, I. Gerasimov, C. Hölzer
   A. Katbashev, J. Koopman, C. Lavigne, S. Lehtola, F. März, M. Müller,
   F. Musil, H. Neugebauer, J. Pisarek, C. Plett, P. Pracht, F. Pultar,
   J. Seibert, P. Shushkov, S. Spicher, M. Stahn, M. Steiner, T. Strunk,
   J. Stückrath, T. Rose, and J. Unsleber
   
 * started run on 2022/07/09 at 18:33:04.672     

           -------------------------------------------------
          |                Calculation Setup                |
           -------------------------------------------------

          program call               : /opt/homebrew/bin/xtb bvl_bpin2_scan_0-5_xtb.xyz --chrg 0 --uhf 0 --opt --input xcontrol_bvl_bpin2_scan_0-5_xtb
          coordinate file            : bvl_bpin2_scan_0-5_xtb.xyz
          omp threads                :                     1

   ID    Z sym.   atoms
    1    6 C      1, 2, 4-7, 10-12, 14, 16, 19-24, 26, 27, 29-31
    2    8 O      3, 8, 18, 25
    3    5 B      9, 17
    4    1 H      13, 15, 28, 32-60
constraining bond 12 31 to    1.5000000 Å, actual value:    1.5036278 Å
constraining bond 10 29 to    1.9444000 Å, actual value:    2.0597249 Å

           -------------------------------------------------
          |                 G F N 2 - x T B                 |
           -------------------------------------------------

        Reference                      10.1021/acs.jctc.8b01176
      * Hamiltonian:
        H0-scaling (s, p, d)           1.850000    2.230000    2.230000
        zeta-weighting                 0.500000
      * Dispersion:
        s8                             2.700000
        a1                             0.520000
        a2                             5.000000
        s9                             5.000000
      * Repulsion:
        kExp                           1.500000    1.000000
        rExp                           1.000000
      * Coulomb:
        alpha                          2.000000
        third order                    shell-resolved
        anisotropic                    true
        a3                             3.000000
        a5                             4.000000
        cn-shift                       1.200000
        cn-exp                         4.000000
        max-rad                        5.000000


          ...................................................
          :                      SETUP                      :
          :.................................................:
          :  # basis functions                 144          :
          :  # atomic orbitals                 144          :
          :  # shells                           88          :
          :  # electrons                       150          :
          :  max. iterations                   250          :
          :  Hamiltonian                  GFN2-xTB          :
          :  restarted?                      false          :
          :  GBSA solvation                  false          :
          :  PC potential                    false          :
          :  electronic temp.          300.0000000     K    :
          :  accuracy                    1.0000000          :
          :  -> integral cutoff          0.2500000E+02      :
          :  -> integral neglect         0.1000000E-07      :
          :  -> SCF convergence          0.1000000E-05 Eh   :
          :  -> wf. convergence          0.1000000E-03 e    :
          :  Broyden damping             0.4000000          :
          ...................................................

 iter      E             dE          RMSdq      gap      omega  full diag
   1    -82.9660653 -0.829661E+02  0.467E+00    3.26       0.0  T
   2    -83.3496828 -0.383618E+00  0.287E+00    2.78       1.0  T
   3    -83.3625103 -0.128275E-01  0.136E+00    3.13       1.0  T
   4    -83.3844606 -0.219503E-01  0.404E-01    2.97       1.0  T
   5    -83.3953427 -0.108821E-01  0.154E-01    3.04       1.0  T
   6    -83.3953075  0.351882E-04  0.113E-01    3.05       1.0  T
   7    -83.3956980 -0.390532E-03  0.308E-02    3.03       1.0  T
   8    -83.3957329 -0.348210E-04  0.887E-03    3.03       1.5  T
   9    -83.3957341 -0.121584E-05  0.465E-03    3.03       2.8  T
  10    -83.3957344 -0.363363E-06  0.234E-03    3.03       5.5  T
  11    -83.3957346 -0.114283E-06  0.520E-04    3.03      24.8  T
  12    -83.3957346 -0.777277E-08  0.225E-04    3.03      57.3  T

   *** convergence criteria satisfied after 12 iterations ***

         #    Occupation            Energy/Eh            Energy/eV
      -------------------------------------------------------------
         1        2.0000           -0.6889927             -18.7484
       ...           ...                  ...                  ...
        69        2.0000           -0.4070289             -11.0758
        70        2.0000           -0.3982737             -10.8376
        71        2.0000           -0.3981226             -10.8335
        72        2.0000           -0.3961498             -10.7798
        73        2.0000           -0.3815226             -10.3818
        74        2.0000           -0.3664476              -9.9715
        75        2.0000           -0.3341263              -9.0920 (HOMO)
        76                         -0.2226318              -6.0581 (LUMO)
        77                         -0.2139639              -5.8223
        78                         -0.1771761              -4.8212
        79                         -0.1021510              -2.7797
        80                         -0.0888353              -2.4173
       ...                                ...                  ...
       144                          0.6936776              18.8759
      -------------------------------------------------------------
                  HL-Gap            0.1114945 Eh            3.0339 eV
             Fermi-level           -0.2783791 Eh           -7.5751 eV

 SCC (total)                   0 d,  0 h,  0 min,  0.066 sec
 SCC setup                      ...        0 min,  0.000 sec (  0.365%)
 Dispersion                     ...        0 min,  0.000 sec (  0.638%)
 classical contributions        ...        0 min,  0.000 sec (  0.267%)
 integral evaluation            ...        0 min,  0.006 sec (  9.268%)
 iterations                     ...        0 min,  0.032 sec ( 48.141%)
 molecular gradient             ...        0 min,  0.027 sec ( 40.821%)
 printout                       ...        0 min,  0.000 sec (  0.494%)

         :::::::::::::::::::::::::::::::::::::::::::::::::::::
         ::                     SUMMARY                     ::
         :::::::::::::::::::::::::::::::::::::::::::::::::::::
         :: total energy             -82.213289623082 Eh    ::
         :: gradient norm              1.188907922180 Eh/a0 ::
         :: HOMO-LUMO gap              3.033920518225 eV    ::
         ::.................................................::
         :: SCC energy               -83.395734558536 Eh    ::
         :: -> isotropic ES            0.147320400066 Eh    ::
         :: -> anisotropic ES          0.011793291784 Eh    ::
         :: -> anisotropic XC          0.026357407308 Eh    ::
         :: -> dispersion             -0.061589155221 Eh    ::
         :: repulsion energy           1.086661180180 Eh    ::
         :: add. restraining           0.095083172777 Eh    ::
         :: total charge              -0.000000000000 e     ::
         :::::::::::::::::::::::::::::::::::::::::::::::::::::

      ----------------------------------------------------------- 
     |                   =====================                   |
     |                        A N C O P T                        |
     |                   =====================                   |
     |               Approximate Normal Coordinate               |
     |                Rational Function Optimizer                |
      ----------------------------------------------------------- 

          ...................................................
          :                      SETUP                      :
          :.................................................:
          :   optimization level            normal          :
          :   max. optcycles                   200          :
          :   ANC micro-cycles                  20          :
          :   degrees of freedom               174          :
          :.................................................:
          :   RF solver                   davidson          :
          :   write xtbopt.log                true          :
          :   linear?                        false          :
          :   energy convergence         0.5000000E-05 Eh   :
          :   grad. convergence          0.1000000E-02 Eh/α :
          :   maximium RF displ.         1.0000000          :
          :   Hlow (freq-cutoff)         0.1000000E-01      :
          :   Hmax (freq-cutoff)         5.0000000          :
          :   S6 in model hess.         20.0000000          :
          ...................................................

generating ANC from model Hessian ...
Using Lindh-Hessian (1995)
 Shifting diagonal of input Hessian by    9.8968667990882789E-003
 Lowest  eigenvalues of input Hessian
    0.000000    0.000000    0.000000    0.000000    0.000000    0.000000
    0.010000    0.010033    0.010165    0.011379    0.011609    0.012565
    0.013138    0.013225    0.014007    0.015073    0.015282    0.015647
 Highest eigenvalues
    1.732367    1.861450    1.926762    2.105803    8.728974    9.389682


........................................................................
.............................. CYCLE    1 ..............................
........................................................................
   1    -83.3957346 -0.833957E+02  0.101E-04    3.03       0.0  T
   2    -83.3957346 -0.334111E-09  0.727E-05    3.03     177.7  T
   3    -83.3957346 -0.244853E-09  0.272E-05    3.03     475.0  T
     SCC iter.                  ...        0 min,  0.008 sec
     gradient                   ...        0 min,  0.027 sec
 * total energy  :   -82.2132896 Eh     change       -0.1843688E-08 Eh
   gradient norm :     1.1889068 Eh/α   predicted     0.0000000E+00 (-100.00%)
   displ. norm   :     0.2375595 α      lambda       -0.2727297E+00
   maximum displ.:     0.2246347 α      in ANC's #174, #163, #115, ...

........................................................................
.............................. CYCLE    2 ..............................
........................................................................
   1    -83.3758381 -0.833758E+02  0.277E-01    2.76       0.0  T
   2    -83.3761880 -0.349954E-03  0.222E-01    2.75       1.0  T
   3    -83.3774236 -0.123560E-02  0.114E-01    2.76       1.0  T
   4    -83.3774458 -0.221462E-04  0.449E-02    2.76       1.0  T
   5    -83.3775494 -0.103645E-03  0.496E-03    2.76       2.6  T
   6    -83.3775500 -0.566294E-06  0.260E-03    2.76       5.0  T
   7    -83.3775501 -0.828293E-07  0.645E-04    2.76      20.0  T
   8    -83.3775501 -0.585672E-09  0.282E-04    2.76      45.8  T
     SCC iter.                  ...        0 min,  0.021 sec
     gradient                   ...        0 min,  0.027 sec
 * total energy  :   -82.2707292 Eh     change       -0.5743962E-01 Eh
   gradient norm :     0.6954479 Eh/α   predicted    -0.1440729E+00 ( 150.82%)
   displ. norm   :     0.1037365 α      lambda       -0.5826325E-01
   maximum displ.:     0.0824244 α      in ANC's #174, #36, #41, ...

........................................................................
.............................. CYCLE    3 ..............................
........................................................................
   1    -83.3854136 -0.833854E+02  0.121E-01    2.83       0.0  T
   2    -83.3854614 -0.478195E-04  0.101E-01    2.84       1.0  T
   3    -83.3857196 -0.258182E-03  0.510E-02    2.83       1.0  T
   4    -83.3857234 -0.384893E-05  0.183E-02    2.84       1.0  T
   5    -83.3857406 -0.171356E-04  0.240E-03    2.84       5.4  T
   6    -83.3857407 -0.130465E-06  0.126E-03    2.84      10.3  T
   7    -83.3857407 -0.146810E-07  0.405E-04    2.84      31.9  T
   8    -83.3857407 -0.452303E-08  0.188E-04    2.84      68.8  T
     SCC iter.                  ...        0 min,  0.021 sec
     gradient                   ...        0 min,  0.027 sec
 * total energy  :   -82.3005046 Eh     change       -0.2977531E-01 Eh
   gradient norm :     0.0182938 Eh/α   predicted    -0.2944510E-01 (  -1.11%)
   displ. norm   :     0.1324519 α      lambda       -0.6643459E-03
   maximum displ.:     0.0520451 α      in ANC's #28, #27, #6, ...

........................................................................
.............................. CYCLE    4 ..............................
........................................................................
   1    -83.3864424 -0.833864E+02  0.590E-02    2.83       0.0  T
   2    -83.3864440 -0.156370E-05  0.353E-02    2.82       1.0  T
   3    -83.3864302  0.138014E-04  0.157E-02    2.83       1.0  T
   4    -83.3864454 -0.152142E-04  0.196E-03    2.83       6.6  T
   5    -83.3864456 -0.171353E-06  0.755E-04    2.82      17.1  T
   6    -83.3864456 -0.424593E-08  0.496E-04    2.82      26.0  T
     SCC iter.                  ...        0 min,  0.016 sec
     gradient                   ...        0 min,  0.027 sec
 * total energy  :   -82.3009615 Eh     change       -0.4569583E-03 Eh
   gradient norm :     0.0086642 Eh/α   predicted    -0.3303524E-03 ( -27.71%)
   displ. norm   :     0.1403596 α      lambda       -0.6204926E-03
   maximum displ.:     0.0608330 α      in ANC's #6, #27, #28, ...

........................................................................
.............................. CYCLE    5 ..............................
........................................................................
   1    -83.3865286 -0.833865E+02  0.535E-02    2.82       0.0  T
   2    -83.3865301 -0.146271E-05  0.319E-02    2.82       1.0  T
   3    -83.3865176  0.124250E-04  0.151E-02    2.82       1.0  T
   4    -83.3865314 -0.137909E-04  0.183E-03    2.82       7.0  T
   5    -83.3865316 -0.153637E-06  0.705E-04    2.82      18.3  T
   6    -83.3865316 -0.612127E-08  0.430E-04    2.82      30.0  T
     SCC iter.                  ...        0 min,  0.016 sec
     gradient                   ...        0 min,  0.027 sec
 * total energy  :   -82.3011325 Eh     change       -0.1709645E-03 Eh
   gradient norm :     0.0080505 Eh/α   predicted    -0.1566932E-03 (  -8.35%)
   displ. norm   :     0.0670268 α      lambda       -0.1627450E-03
   maximum displ.:     0.0386018 α      in ANC's #6, #1, #17, ...

........................................................................
.............................. CYCLE    6 ..............................
........................................................................
   1    -83.3866787 -0.833867E+02  0.188E-02    2.81       0.0  T
   2    -83.3866788 -0.151348E-06  0.113E-02    2.81       1.1  T
   3    -83.3866782  0.611507E-06  0.324E-03    2.81       4.0  T
   4    -83.3866789 -0.665153E-06  0.625E-04    2.81      20.7  T
   5    -83.3866789 -0.188954E-07  0.225E-04    2.81      57.4  T
     SCC iter.                  ...        0 min,  0.013 sec
     gradient                   ...        0 min,  0.027 sec
 * total energy  :   -82.3011668 Eh     change       -0.3430732E-04 Eh
   gradient norm :     0.0058094 Eh/α   predicted    -0.2766108E-04 ( -19.37%)
   displ. norm   :     0.0772513 α      lambda       -0.1535783E-03
   maximum displ.:     0.0456825 α      in ANC's #6, #1, #5, ...

........................................................................
.............................. CYCLE    7 ..............................
........................................................................
   1    -83.3867874 -0.833868E+02  0.188E-02    2.81       0.0  T
   2    -83.3867874 -0.310472E-07  0.114E-02    2.81       1.1  T
   3    -83.3867870  0.418673E-06  0.277E-03    2.81       4.7  T
   4    -83.3867874 -0.448678E-06  0.373E-04    2.81      34.6  T
   5    -83.3867874 -0.381358E-08  0.179E-04    2.81      71.9  T
     SCC iter.                  ...        0 min,  0.013 sec
     gradient                   ...        0 min,  0.027 sec
 * total energy  :   -82.3011950 Eh     change       -0.2824503E-04 Eh
   gradient norm :     0.0028446 Eh/α   predicted    -0.1948740E-04 ( -31.01%)
   displ. norm   :     0.0836962 α      lambda       -0.1438859E-03
   maximum displ.:     0.0485672 α      in ANC's #1, #6, #5, ...

........................................................................
.............................. CYCLE    8 ..............................
........................................................................
   1    -83.3866568 -0.833867E+02  0.184E-02    2.81       0.0  T
   2    -83.3866569 -0.691057E-07  0.113E-02    2.81       1.1  T
   3    -83.3866556  0.130944E-05  0.466E-03    2.81       2.8  T
   4    -83.3866570 -0.141564E-05  0.492E-04    2.81      26.3  T
   5    -83.3866570 -0.814406E-08  0.237E-04    2.81      54.5  T
   6    -83.3866570 -0.886601E-09  0.129E-04    2.81     100.4  T
     SCC iter.                  ...        0 min,  0.016 sec
     gradient                   ...        0 min,  0.027 sec
 * total energy  :   -82.3012145 Eh     change       -0.1951630E-04 Eh
   gradient norm :     0.0016414 Eh/α   predicted    -0.1461804E-04 ( -25.10%)
   displ. norm   :     0.0731638 α      lambda       -0.6379438E-04
   maximum displ.:     0.0522887 α      in ANC's #1, #6, #5, ...

........................................................................
.............................. CYCLE    9 ..............................
........................................................................
   1    -83.3864005 -0.833864E+02  0.138E-02    2.81       0.0  T
   2    -83.3864006 -0.845292E-07  0.848E-03    2.81       1.5  T
   3    -83.3863997  0.928703E-06  0.429E-03    2.81       3.0  T
   4    -83.3864007 -0.104063E-05  0.397E-04    2.81      32.5  T
   5    -83.3864007 -0.547320E-08  0.180E-04    2.81      71.7  T
   6    -83.3864007 -0.452857E-09  0.104E-04    2.81     124.6  T
     SCC iter.                  ...        0 min,  0.016 sec
     gradient                   ...        0 min,  0.027 sec
 * total energy  :   -82.3012252 Eh     change       -0.1066314E-04 Eh
   gradient norm :     0.0013836 Eh/α   predicted    -0.5411290E-05 ( -49.25%)
   displ. norm   :     0.0399002 α      lambda       -0.4318027E-04
   maximum displ.:     0.0328721 α      in ANC's #1, #2, #14, ...

........................................................................
.............................. CYCLE   10 ..............................
........................................................................
   1    -83.3863373 -0.833863E+02  0.525E-03    2.81       0.0  T
   2    -83.3863373 -0.110958E-07  0.323E-03    2.81       4.0  T
   3    -83.3863371  0.183722E-06  0.220E-03    2.81       5.9  T
   4    -83.3863374 -0.226578E-06  0.179E-04    2.81      72.3  T
   5    -83.3863374 -0.985551E-09  0.100E-04    2.81     128.5  T
     SCC iter.                  ...        0 min,  0.013 sec
     gradient                   ...        0 min,  0.027 sec
 * total energy  :   -82.3012329 Eh     change       -0.7683401E-05 Eh
   gradient norm :     0.0006982 Eh/α   predicted    -0.3146894E-05 ( -59.04%)
   displ. norm   :     0.0550626 α      lambda       -0.5175636E-04
   maximum displ.:     0.0442260 α      in ANC's #1, #2, #6, ...

........................................................................
.............................. CYCLE   11 ..............................
........................................................................
   1    -83.3863662 -0.833864E+02  0.590E-03    2.81       0.0  T
   2    -83.3863662 -0.874644E-08  0.358E-03    2.81       3.6  T
   3    -83.3863659  0.231885E-06  0.219E-03    2.81       5.9  T
   4    -83.3863662 -0.262998E-06  0.192E-04    2.81      67.3  T
   5    -83.3863662 -0.119789E-08  0.987E-05    2.81     130.8  T
     SCC iter.                  ...        0 min,  0.013 sec
     gradient                   ...        0 min,  0.027 sec
 * total energy  :   -82.3012416 Eh     change       -0.8704524E-05 Eh
   gradient norm :     0.0011274 Eh/α   predicted    -0.3298031E-05 ( -62.11%)
   displ. norm   :     0.0608278 α      lambda       -0.5698014E-04
   maximum displ.:     0.0469957 α      in ANC's #1, #2, #6, ...

........................................................................
.............................. CYCLE   12 ..............................
........................................................................
   1    -83.3864318 -0.833864E+02  0.617E-03    2.81       0.0  T
   2    -83.3864318 -0.108620E-07  0.368E-03    2.81       3.5  T
   3    -83.3864317  0.694397E-07  0.109E-03    2.81      11.9  T
   4    -83.3864318 -0.767894E-07  0.192E-04    2.81      67.3  T
   5    -83.3864318 -0.109674E-08  0.964E-05    2.81     133.9  T
     SCC iter.                  ...        0 min,  0.013 sec
     gradient                   ...        0 min,  0.027 sec
 * total energy  :   -82.3012506 Eh     change       -0.9013233E-05 Eh
   gradient norm :     0.0011994 Eh/α   predicted    -0.3223128E-05 ( -64.24%)
   displ. norm   :     0.0787935 α      lambda       -0.8044635E-04
   maximum displ.:     0.0591732 α      in ANC's #1, #2, #6, ...

........................................................................
.............................. CYCLE   13 ..............................
........................................................................
   1    -83.3865156 -0.833865E+02  0.812E-03    2.81       0.0  T
   2    -83.3865156 -0.161595E-07  0.484E-03    2.81       2.7  T
   3    -83.3865156  0.225286E-07  0.735E-04    2.81      17.6  T
   4    -83.3865156 -0.276602E-07  0.211E-04    2.81      61.1  T
     SCC iter.                  ...        0 min,  0.010 sec
     gradient                   ...        0 min,  0.027 sec
 * total energy  :   -82.3012619 Eh     change       -0.1127742E-04 Eh
   gradient norm :     0.0008914 Eh/α   predicted    -0.4099705E-05 ( -63.65%)
   displ. norm   :     0.0963719 α      lambda       -0.1008885E-03
   maximum displ.:     0.0715255 α      in ANC's #1, #2, #6, ...

........................................................................
.............................. CYCLE   14 ..............................
........................................................................
   1    -83.3865782 -0.833866E+02  0.974E-03    2.81       0.0  T
   2    -83.3865782 -0.164036E-07  0.581E-03    2.81       2.2  T
   3    -83.3865782  0.816097E-07  0.127E-03    2.81      10.2  T
   4    -83.3865782 -0.911093E-07  0.239E-04    2.81      54.0  T
   5    -83.3865782 -0.126964E-08  0.122E-04    2.81     106.2  T
     SCC iter.                  ...        0 min,  0.013 sec
     gradient                   ...        0 min,  0.027 sec
 * total energy  :   -82.3012746 Eh     change       -0.1274399E-04 Eh
   gradient norm :     0.0006238 Eh/α   predicted    -0.4679897E-05 ( -63.28%)
   displ. norm   :     0.1112026 α      lambda       -0.1137354E-03
   maximum displ.:     0.0834141 α      in ANC's #1, #2, #3, ...

........................................................................
.............................. CYCLE   15 ..............................
........................................................................
   1    -83.3866124 -0.833866E+02  0.111E-02    2.81       0.0  T
   2    -83.3866124 -0.182334E-07  0.660E-03    2.81       2.0  T
   3    -83.3866123  0.854440E-07  0.125E-03    2.81      10.3  T
   4    -83.3866124 -0.960276E-07  0.266E-04    2.81      48.5  T
   5    -83.3866124 -0.134021E-08  0.152E-04    2.81      85.1  T
     SCC iter.                  ...        0 min,  0.013 sec
     gradient                   ...        0 min,  0.027 sec
 * total energy  :   -82.3012883 Eh     change       -0.1363168E-04 Eh
   gradient norm :     0.0005534 Eh/α   predicted    -0.4844220E-05 ( -64.46%)
   displ. norm   :     0.1047492 α      lambda       -0.1225381E-03
   maximum displ.:     0.0779070 α      in ANC's #1, #2, #3, ...

........................................................................
.............................. CYCLE   16 ..............................
........................................................................
   1    -83.3866035 -0.833866E+02  0.104E-02    2.81       0.0  T
   2    -83.3866035 -0.111136E-07  0.627E-03    2.81       2.1  T
   3    -83.3866035  0.432376E-07  0.883E-04    2.81      14.6  T
   4    -83.3866035 -0.504524E-07  0.227E-04    2.81      56.8  T
     SCC iter.                  ...        0 min,  0.010 sec
     gradient                   ...        0 min,  0.027 sec
 * total energy  :   -82.3013009 Eh     change       -0.1264088E-04 Eh
   gradient norm :     0.0006608 Eh/α   predicted    -0.4468155E-05 ( -64.65%)
   displ. norm   :     0.1202782 α      lambda       -0.1469996E-03
   maximum displ.:     0.0896391 α      in ANC's #1, #2, #3, ...

........................................................................
.............................. CYCLE   17 ..............................
........................................................................
   1    -83.3865854 -0.833866E+02  0.117E-02    2.81       0.0  T
   2    -83.3865854 -0.140048E-07  0.707E-03    2.81       1.8  T
   3    -83.3865853  0.149197E-06  0.156E-03    2.81       8.3  T
   4    -83.3865855 -0.165033E-06  0.256E-04    2.81      50.5  T
   5    -83.3865855 -0.444089E-09  0.167E-04    2.81      77.5  T
     SCC iter.                  ...        0 min,  0.013 sec
     gradient                   ...        0 min,  0.027 sec
 * total energy  :   -82.3013152 Eh     change       -0.1432314E-04 Eh
   gradient norm :     0.0007307 Eh/α   predicted    -0.5010044E-05 ( -65.02%)
   displ. norm   :     0.1190198 α      lambda       -0.1614550E-03
   maximum displ.:     0.0866315 α      in ANC's #1, #2, #3, ...

........................................................................
.............................. CYCLE   18 ..............................
........................................................................
   1    -83.3865134 -0.833865E+02  0.112E-02    2.81       0.0  T
   2    -83.3865134 -0.170501E-07  0.674E-03    2.81       1.9  T
   3    -83.3865131  0.227763E-06  0.204E-03    2.81       6.3  T
   4    -83.3865134 -0.251393E-06  0.240E-04    2.81      53.8  T
   5    -83.3865134 -0.524821E-09  0.142E-04    2.81      90.8  T
     SCC iter.                  ...        0 min,  0.013 sec
     gradient                   ...        0 min,  0.027 sec
 * total energy  :   -82.3013290 Eh     change       -0.1375002E-04 Eh
   gradient norm :     0.0008524 Eh/α   predicted    -0.4850279E-05 ( -64.73%)
   displ. norm   :     0.1490152 α      lambda       -0.2053287E-03
   maximum displ.:     0.1089473 α      in ANC's #1, #2, #3, ...

........................................................................
.............................. CYCLE   19 ..............................
........................................................................
   1    -83.3863859 -0.833864E+02  0.138E-02    2.81       0.0  T
   2    -83.3863859 -0.297259E-07  0.833E-03    2.81       1.6  T
   3    -83.3863855  0.448465E-06  0.288E-03    2.81       4.5  T
   4    -83.3863860 -0.493916E-06  0.302E-04    2.81      42.7  T
   5    -83.3863860 -0.119645E-08  0.174E-04    2.81      74.1  T
     SCC iter.                  ...        0 min,  0.013 sec
     gradient                   ...        0 min,  0.027 sec
 * total energy  :   -82.3013450 Eh     change       -0.1604868E-04 Eh
   gradient norm :     0.0006710 Eh/α   predicted    -0.5880062E-05 ( -63.36%)
   displ. norm   :     0.1421402 α      lambda       -0.1922511E-03
   maximum displ.:     0.1025543 α      in ANC's #1, #2, #3, ...

........................................................................
.............................. CYCLE   20 ..............................
........................................................................
   1    -83.3863014 -0.833863E+02  0.127E-02    2.81       0.0  T
   2    -83.3863014 -0.286684E-07  0.768E-03    2.81       1.7  T
   3    -83.3863010  0.434234E-06  0.286E-03    2.81       4.5  T
   4    -83.3863014 -0.479060E-06  0.286E-04    2.81      45.1  T
   5    -83.3863014 -0.134749E-08  0.161E-04    2.81      80.1  T
     SCC iter.                  ...        0 min,  0.013 sec
     gradient                   ...        0 min,  0.027 sec
 * total energy  :   -82.3013589 Eh     change       -0.1391088E-04 Eh
   gradient norm :     0.0005171 Eh/α   predicted    -0.4944868E-05 ( -64.45%)
   displ. norm   :     0.1595963 α      lambda       -0.2117084E-03
   maximum displ.:     0.1159678 α      in ANC's #1, #2, #3, ...
 * RMSD in coord.:     0.1924068 α      energy gain  -0.8806931E-01 Eh

generating ANC from model Hessian ...
Using Lindh-Hessian (1995)
 Shifting diagonal of input Hessian by    9.8950657835282802E-003
 Lowest  eigenvalues of input Hessian
    0.000000    0.000000    0.000000    0.000000    0.000000    0.000000
    0.010000    0.010033    0.010135    0.010872    0.011397    0.012005
    0.012412    0.013214    0.013232    0.014512    0.014970    0.015227
 Highest eigenvalues
    1.732058    1.828195    1.902624    1.933847    8.764690    9.390263


........................................................................
.............................. CYCLE   21 ..............................
........................................................................
   1    -83.3862355 -0.833862E+02  0.140E-02    2.81       0.0  T
   2    -83.3862355 -0.353051E-07  0.845E-03    2.81       1.5  T
   3    -83.3862350  0.522134E-06  0.314E-03    2.81       4.1  T
   4    -83.3862356 -0.576312E-06  0.315E-04    2.81      41.0  T
   5    -83.3862356 -0.169275E-08  0.177E-04    2.81      73.0  T
     SCC iter.                  ...        0 min,  0.013 sec
     gradient                   ...        0 min,  0.026 sec
 * total energy  :   -82.3013731 Eh     change       -0.1412037E-04 Eh
   gradient norm :     0.0004818 Eh/α   predicted     0.0000000E+00 (-100.00%)
   displ. norm   :     0.0185902 α      lambda       -0.1883831E-05
   maximum displ.:     0.0156354 α      in ANC's #1, #4, #10, ...

........................................................................
.............................. CYCLE   22 ..............................
........................................................................
   1    -83.3865075 -0.833865E+02  0.306E-03    2.81       0.0  T
   2    -83.3865076 -0.461850E-08  0.184E-03    2.81       7.0  T
   3    -83.3865075  0.163387E-07  0.599E-04    2.81      21.5  T
   4    -83.3865076 -0.179946E-07  0.107E-04    2.81     120.3  T
     SCC iter.                  ...        0 min,  0.010 sec
     gradient                   ...        0 min,  0.026 sec
 * total energy  :   -82.3013759 Eh     change       -0.2861696E-05 Eh
   gradient norm :     0.0003677 Eh/α   predicted    -0.1114670E-05 ( -61.05%)
   displ. norm   :     0.0381199 α      lambda       -0.3112561E-05
   maximum displ.:     0.0294335 α      in ANC's #1, #4, #2, ...

   *** GEOMETRY OPTIMIZATION CONVERGED AFTER 22 ITERATIONS ***

------------------------------------------------------------------------
 total energy gain   :        -0.0880863 Eh      -55.2750 kcal/mol
 total RMSD          :         0.1938516 a0        0.1026 Å
 total power (kW/mol):       -10.5122973 (step) -208.4923 (real)
------------------------------------------------------------------------

 ANCopt (total)                0 d,  0 h,  0 min,  1.109 sec
 optimizer setup                ...        0 min,  0.000 sec (  0.006%)
 model hessian                  ...        0 min,  0.062 sec (  5.611%)
 ANC generation                 ...        0 min,  0.005 sec (  0.459%)
 coordinate transformation      ...        0 min,  0.000 sec (  0.027%)
 single point calculation       ...        0 min,  1.033 sec ( 93.145%)
 optimization log               ...        0 min,  0.004 sec (  0.391%)
 hessian update                 ...        0 min,  0.000 sec (  0.042%)
 rational function              ...        0 min,  0.003 sec (  0.242%)

================
 final structure:
================
60
 xtb: 6.5.0 (homebrew)
C            3.38970417637966      -37.85896500532692       15.99982607646669
C            3.67747487412765      -38.19493844088682       17.46134835613748
O            3.22861411268284      -37.12552838887623       18.29263937732639
C            2.86675649025172      -39.43457325349573       17.86010486038018
C            5.20236391915396      -38.31496062760672       17.82698201757233
C            5.71842903992827      -39.74482398615456       17.97192939751366
C            6.11272696149695      -37.54890628251037       16.85909935073998
O            5.28679969208647      -37.65069518049963       19.08864983767771
B            4.15403934953558      -36.91180877657542       19.27632341642484
C            3.93079909469596      -35.93111713810602       20.47367160404547
C            4.94756767067755      -35.74889489372157       21.36309932138873
C            5.01302676111722      -34.71674066257263       22.37419272098479
H            5.95094313260865      -34.71211244669541       22.92162122277024
C            3.83455852932249      -34.15524752754452       23.12877916436651
H            4.08046601044575      -33.78591886104569       24.11691853178338
C            2.48868493897645      -34.76750991279595       23.09190296445528
B            1.71399997180327      -34.84577036127154       24.44537709071795
O            2.20936461651339      -34.38598996588043       25.63506584765985
C            1.33978710825217      -34.80519355512416       26.68610198580541
C            1.18238451078746      -33.67566832663329       27.70130500103125
C            2.01476707312847      -36.00253567291369       27.36760211284152
C            0.02381898780365      -35.19966086069824       25.92223699433339
C           -1.00198536892525      -34.06028670294835       25.87314251237253
C           -0.66060720533571      -36.46669234452231       26.43056431337315
O            0.47711174456310      -35.40935404716285       24.58528000230591
C            1.94951406718395      -35.28362082699463       21.98553166101807
C            2.55737516266026      -35.35499065106644       20.63242268952078
H            1.86710059031621      -35.82185692408954       19.93274016838172
C            3.21513898955984      -34.17459294811509       20.02675481319161
C            3.91832040847904      -33.21780952484853       20.67038668936922
C            4.45411742543204      -33.36824812519211       22.01015853252121
H            5.04254818795410      -32.51389339795566       22.33239979787239
H            2.31322267388377      -37.81025893887986       15.85538861893934
H            3.79697334011710      -38.62908065138732       15.35043079739811
H            3.80922117814884      -36.89594708060329       15.72745986619117
H            1.81010716606996      -39.21164494279611       17.73029986845576
H            3.03309697866392      -39.67120778495777       18.90800337085307
H            3.12598306948759      -40.28950484395638       17.24308408387767
H            5.58323790979458      -40.28977841615467       17.04163542966900
H            5.20905175219046      -40.26589083706330       18.77589703469953
H            6.77848476706314      -39.71325318131438       18.21077935822663
H            6.12806405188856      -38.01783659635463       15.87988518397813
H            7.12137986591629      -37.54440161447276       17.26569641436755
H            5.78350165888816      -36.51681502257958       16.76907774113462
H            5.88270724404335      -36.24317652242751       21.13578151776235
H            2.14209646722175      -33.49559682942790       28.17938391487390
H            0.45748432374079      -33.95327927645648       28.46177909840458
H            0.86870854818503      -32.75529570624767       27.21969142116770
H            2.99320979378692      -35.68960067160680       27.72495862781846
H            2.16118034296766      -36.80757019255503       26.65185037494046
H            1.42816106934577      -36.35871587357917       28.20904225714716
H           -1.42429285479677      -33.86923251890598       26.85514068910411
H           -1.80110873949687      -34.34520867551238       25.19274030563633
H           -0.54010619703642      -33.15516715160516       25.48702093475645
H           -0.93126990781355      -36.35448794189443       27.47696799151776
H           -0.01840301692244      -37.33330023333658       26.31215434261933
H           -1.56371892197186      -36.63557250778967       25.84942705429273
H            0.96406161956125      -35.72095494921785       22.06634444122326
H            3.02542828079614      -34.03486821939133       18.96888827175394
H            4.34151651261419      -32.41047719969075       20.08681255684640

 Bond Distances (Angstroems)
 ---------------------------
C1-C2=1.5270         C1-H33=1.0872        C1-H34=1.0866        C1-H35=1.0852        C2-C1=1.5270         C2-O3=1.4269         
C2-C4=1.5339         C2-C5=1.5727         O3-C2=1.4269         O3-B9=1.3674         C4-C2=1.5339         C4-H36=1.0877        
C4-H37=1.0871        C4-H38=1.0857        C5-C2=1.5727         C5-C6=1.5270         C5-C7=1.5338         C5-O8=1.4284         
C6-C5=1.5270         C6-H39=1.0866        C6-H40=1.0851        C6-H41=1.0871        C7-C5=1.5338         C7-H42=1.0858        
C7-H43=1.0875        C7-H44=1.0871        O8-C5=1.4284         O8-B9=1.3654         B9-O3=1.3674         B9-O8=1.3654         
B9-C10=1.5637        C10-B9=1.5637        C10-C11=1.3631       C10-C27=1.4978       C10-C29=1.9487       C11-C10=1.3631       
C11-C12=1.4464       C11-H45=1.0819       C12-C11=1.4464       C12-H13=1.0860       C12-C14=1.5078       C12-C31=1.5044       
H13-C12=1.0860       C14-C12=1.5078       C14-H15=1.0832       C14-C16=1.4791       C14-C31=1.5015       H15-C14=1.0832       
C16-C14=1.4791       C16-B17=1.5615       C16-C26=1.3346       B17-C16=1.5615       B17-O18=1.3683       B17-O25=1.3664       
O18-B17=1.3683       O18-C19=1.4271       C19-O18=1.4271       C19-C20=1.5268       C19-C21=1.5342       C19-C22=1.5719       
C20-C19=1.5268       C20-H46=1.0872       C20-H47=1.0867       C20-H48=1.0851       C21-C19=1.5342       C21-H49=1.0876       
C21-H50=1.0871       C21-H51=1.0858       C22-C19=1.5719       C22-C23=1.5339       C22-C24=1.5272       C22-O25=1.4272       
C23-C22=1.5339       C23-H52=1.0859       C23-H53=1.0875       C23-H54=1.0870       C24-C22=1.5272       C24-H55=1.0867       
C24-H56=1.0851       C24-H57=1.0871       O25-B17=1.3664       O25-C22=1.4272       C26-C16=1.3346       C26-C27=1.4851       
C26-H58=1.0812       C27-C10=1.4978       C27-C26=1.4851       C27-H28=1.0881       C27-C29=1.4808       H28-C27=1.0881       
C29-C10=1.9487       C29-C27=1.4808       C29-C30=1.3506       C29-H59=1.0838       C30-C29=1.3506       C30-C31=1.4508       
C30-H60=1.0823       C31-C12=1.5044       C31-C14=1.5015       C31-C30=1.4508       C31-H32=1.0863       H32-C31=1.0863       
H33-C1=1.0872        H34-C1=1.0866        H35-C1=1.0852        H36-C4=1.0877        H37-C4=1.0871        H38-C4=1.0857        
H39-C6=1.0866        H40-C6=1.0851        H41-C6=1.0871        H42-C7=1.0858        H43-C7=1.0875        H44-C7=1.0871        
H45-C11=1.0819       H46-C20=1.0872       H47-C20=1.0867       H48-C20=1.0851       H49-C21=1.0876       H50-C21=1.0871       
H51-C21=1.0858       H52-C23=1.0859       H53-C23=1.0875       H54-C23=1.0870       H55-C24=1.0867       H56-C24=1.0851       
H57-C24=1.0871       H58-C26=1.0812       H59-C29=1.0838       H60-C30=1.0823       
 C  H  Rav=1.0859 sigma=0.0017  Rmin=1.0812  Rmax=1.0881    32
 C  B  Rav=1.5626 sigma=0.0011  Rmin=1.5615  Rmax=1.5637     2
 C  C  Rav=1.5104 sigma=0.1126  Rmin=1.3346  Rmax=1.9487    23
 O  B  Rav=1.3669 sigma=0.0011  Rmin=1.3654  Rmax=1.3683     4
 O  C  Rav=1.4274 sigma=0.0006  Rmin=1.4269  Rmax=1.4284     4

 selected bond angles (degree)
 --------------------
H33-C1-C2=108.88               H34-C1-C2=110.21               H34-C1-H33=108.87              H35-C1-C2=111.26               
H35-C1-H33=108.04              H35-C1-H34=109.52              O3-C2-C1=109.48                C4-C2-C1=109.09                
C4-C2-O3=106.74                C5-C2-C1=114.96                C5-C2-O3=103.11                C5-C2-C4=112.98                
B9-O3-C2=108.87                H36-C4-C2=108.47               H37-C4-C2=110.22               H37-C4-H36=107.96              
H38-C4-C2=111.25               H38-C4-H36=109.00              H38-C4-H37=109.87              C6-C5-C2=114.91                
C7-C5-C2=113.00                C7-C5-C6=109.09                O8-C5-C2=103.13                O8-C5-C6=109.37                
O8-C5-C7=106.86                H39-C6-C5=110.26               H40-C6-C5=111.18               H40-C6-H39=109.58              
H41-C6-C5=108.86               H41-C6-H39=108.90              H41-C6-H40=107.99              H42-C7-C5=111.21               
H43-C7-C5=108.46               H43-C7-H42=109.02              H44-C7-C5=110.29               H44-C7-H42=109.85              
H44-C7-H43=107.93              B9-O8-C5=108.91                O8-B9-O3=112.21                C10-B9-O3=123.52               
C10-B9-O8=124.27               C11-C10-B9=118.49              C27-C10-B9=116.96              C27-C10-C11=124.29             
C29-C10-B9=116.24              C29-C10-C11=107.64             C29-C10-C27= 48.76             

 selected dihedral angles (degree)
 ---------------------------------
O3-C2-C1-H33=294.90           O3-C2-C1-H34=175.54           O3-C2-C1-H35= 53.86           C4-C2-C1-H33= 51.36           
C4-C2-C1-H34=292.00           C4-C2-C1-H35=170.32           C5-C2-C1-H33=179.43           C5-C2-C1-H34= 60.08           
C5-C2-C1-H35=298.40           B9-O3-C2-C1=220.94            B9-O3-C2-C4=103.00            B9-O3-C2-C5=343.76            
H36-C4-C2-C1=299.84           H36-C4-C2-O3= 58.03           H36-C4-C2-C5=170.66           H37-C4-C2-C1=181.84           
H37-C4-C2-O3=300.04           H37-C4-C2-C5= 52.66           H38-C4-C2-C1= 59.71           H38-C4-C2-O3=177.91           
H38-C4-C2-C5=290.53           C6-C5-C2-C1=257.15            C6-C5-C2-O3=138.08            C6-C5-C2-C4= 23.25            
C7-C5-C2-C1= 23.22            C7-C5-C2-O3=264.15            C7-C5-C2-C4=149.32            O8-C5-C2-C1=138.22            
O8-C5-C2-O3= 19.14            O8-C5-C2-C4=264.32            H39-C6-C5-C2= 59.86           H39-C6-C5-C7=291.80           
H39-C6-C5-O8=175.25           H40-C6-C5-C2=298.11           H40-C6-C5-C7=170.05           H40-C6-C5-O8= 53.50           
H41-C6-C5-C2=179.26           H41-C6-C5-C7= 51.20           H41-C6-C5-O8=294.65           H42-C7-C5-C2=290.77           
H42-C7-C5-C6= 59.90           H42-C7-C5-O8=178.03           H43-C7-C5-C2=170.90           H43-C7-C5-C6=300.03           
H43-C7-C5-O8= 58.16           H44-C7-C5-C2= 52.90           H44-C7-C5-C6=182.03           H44-C7-C5-O8=300.16           
B9-O8-C5-C2=344.40            B9-O8-C5-C6=221.68            B9-O8-C5-C7=103.73            O8-B9-O3-C2=  7.37            
C10-B9-O3-C2=187.34           O3-B9-O8-C5=  6.26            C10-B9-O8-C5=186.29           C11-C10-B9-O3=183.03          
C11-C10-B9-O8=  3.00          C27-C10-B9-O3=  8.71          C27-C10-B9-O8=188.67          C29-C10-B9-O3=313.72          
C29-C10-B9-O8=133.69          
           -------------------------------------------------
          |                Final Singlepoint                |
           -------------------------------------------------

          ...................................................
          :                      SETUP                      :
          :.................................................:
          :  # basis functions                 144          :
          :  # atomic orbitals                 144          :
          :  # shells                           88          :
          :  # electrons                       150          :
          :  max. iterations                   250          :
          :  Hamiltonian                  GFN2-xTB          :
          :  restarted?                      false          :
          :  GBSA solvation                  false          :
          :  PC potential                    false          :
          :  electronic temp.          300.0000000     K    :
          :  accuracy                    1.0000000          :
          :  -> integral cutoff          0.2500000E+02      :
          :  -> integral neglect         0.1000000E-07      :
          :  -> SCF convergence          0.1000000E-05 Eh   :
          :  -> wf. convergence          0.1000000E-03 e    :
          :  Broyden damping             0.4000000          :
          ...................................................

 iter      E             dE          RMSdq      gap      omega  full diag
   1    -83.3865076 -0.833865E+02  0.393E-05    2.81       0.0  T
   2    -83.3865076 -0.139977E-10  0.260E-05    2.81     496.0  T
   3    -83.3865076 -0.802913E-11  0.166E-05    2.81     779.8  T

   *** convergence criteria satisfied after 3 iterations ***

         #    Occupation            Energy/Eh            Energy/eV
      -------------------------------------------------------------
         1        2.0000           -0.6903522             -18.7854
       ...           ...                  ...                  ...
        69        2.0000           -0.4074779             -11.0880
        70        2.0000           -0.3993605             -10.8672
        71        2.0000           -0.3984659             -10.8428
        72        2.0000           -0.3959917             -10.7755
        73        2.0000           -0.3794763             -10.3261
        74        2.0000           -0.3713296             -10.1044
        75        2.0000           -0.3267795              -8.8921 (HOMO)
        76                         -0.2234527              -6.0805 (LUMO)
        77                         -0.2161029              -5.8805
        78                         -0.1684932              -4.5849
        79                         -0.1021071              -2.7785
        80                         -0.0827343              -2.2513
       ...                                ...                  ...
       144                          0.6968255              18.9616
      -------------------------------------------------------------
                  HL-Gap            0.1033268 Eh            2.8117 eV
             Fermi-level           -0.2751161 Eh           -7.4863 eV

 SCC (total)                   0 d,  0 h,  0 min,  0.040 sec
 SCC setup                      ...        0 min,  0.000 sec (  0.527%)
 Dispersion                     ...        0 min,  0.000 sec (  0.859%)
 classical contributions        ...        0 min,  0.000 sec (  0.404%)
 integral evaluation            ...        0 min,  0.006 sec ( 14.027%)
 iterations                     ...        0 min,  0.008 sec ( 19.179%)
 molecular gradient             ...        0 min,  0.026 sec ( 64.252%)
 printout                       ...        0 min,  0.000 sec (  0.745%)

         :::::::::::::::::::::::::::::::::::::::::::::::::::::
         ::                     SUMMARY                     ::
         :::::::::::::::::::::::::::::::::::::::::::::::::::::
         :: total energy             -82.301375920491 Eh    ::
         :: gradient norm              0.000367884736 Eh/a0 ::
         :: HOMO-LUMO gap              2.811665035477 eV    ::
         ::.................................................::
         :: SCC energy               -83.386507553454 Eh    ::
         :: -> isotropic ES            0.147576937119 Eh    ::
         :: -> anisotropic ES          0.011471305158 Eh    ::
         :: -> anisotropic XC          0.026091067153 Eh    ::
         :: -> dispersion             -0.061059974582 Eh    ::
         :: repulsion energy           1.084196894889 Eh    ::
         :: add. restraining           0.000270365675 Eh    ::
         :: total charge               0.000000000000 e     ::
         :::::::::::::::::::::::::::::::::::::::::::::::::::::

           -------------------------------------------------
          |                Property Printout                |
           -------------------------------------------------

    * Orbital Energies and Occupations

         #    Occupation            Energy/Eh            Energy/eV
      -------------------------------------------------------------
         1        2.0000           -0.6903522             -18.7854
       ...           ...                  ...                  ...
        63        2.0000           -0.4376243             -11.9084
        64        2.0000           -0.4319886             -11.7550
        65        2.0000           -0.4288035             -11.6683
        66        2.0000           -0.4217075             -11.4752
        67        2.0000           -0.4189265             -11.3996
        68        2.0000           -0.4133929             -11.2490
        69        2.0000           -0.4074779             -11.0880
        70        2.0000           -0.3993605             -10.8672
        71        2.0000           -0.3984659             -10.8428
        72        2.0000           -0.3959917             -10.7755
        73        2.0000           -0.3794763             -10.3261
        74        2.0000           -0.3713296             -10.1044
        75        2.0000           -0.3267795              -8.8921 (HOMO)
        76                         -0.2234527              -6.0805 (LUMO)
        77                         -0.2161029              -5.8805
        78                         -0.1684932              -4.5849
        79                         -0.1021071              -2.7785
        80                         -0.0827343              -2.2513
        81                          0.0059436               0.1617
        82                          0.0095210               0.2591
        83                          0.0157196               0.4278
        84                          0.0268722               0.7312
        85                          0.0296871               0.8078
        86                          0.0564394               1.5358
       ...                                ...                  ...
       144                          0.6968255              18.9616
      -------------------------------------------------------------
                  HL-Gap            0.1033268 Eh            2.8117 eV
             Fermi-level           -0.2751161 Eh           -7.4863 eV

     #   Z          covCN         q      C6AA      α(0)
     1   6 C        3.755    -0.117    22.796     6.808
     2   6 C        3.859     0.129    18.452     6.109
     3   8 O        1.638    -0.373    20.334     6.087
     4   6 C        3.755    -0.116    22.782     6.806
     5   6 C        3.859     0.129    18.452     6.109
     6   6 C        3.755    -0.118    22.812     6.810
     7   6 C        3.755    -0.116    22.777     6.805
     8   8 O        1.638    -0.372    20.316     6.084
     9   5 B        2.659     0.435    15.528     6.634
    10   6 C        3.459    -0.065    24.195     7.412
    11   6 C        2.896    -0.054    29.334     8.880
    12   6 C        3.864    -0.005    20.627     6.459
    13   1 H        0.925     0.029     2.605     2.524
    14   6 C        3.865    -0.026    20.993     6.516
    15   1 H        0.925     0.040     2.446     2.446
    16   6 C        2.863    -0.083    30.062     8.987
    17   5 B        2.662     0.432    15.547     6.636
    18   8 O        1.638    -0.373    20.343     6.088
    19   6 C        3.860     0.129    18.454     6.109
    20   6 C        3.755    -0.117    22.799     6.808
    21   6 C        3.755    -0.116    22.779     6.805
    22   6 C        3.860     0.129    18.455     6.109
    23   6 C        3.755    -0.116    22.784     6.806
    24   6 C        3.755    -0.117    22.805     6.809
    25   8 O        1.638    -0.371    20.298     6.081
    26   6 C        2.897    -0.030    28.756     8.792
    27   6 C        3.866    -0.016    20.818     6.488
    28   1 H        0.925     0.044     2.402     2.424
    29   6 C        3.486    -0.013    22.657     7.098
    30   6 C        2.891    -0.063    29.578     8.917
    31   6 C        3.867    -0.003    20.597     6.454
    32   1 H        0.925     0.029     2.604     2.524
    33   1 H        0.925     0.055     2.261     2.352
    34   1 H        0.925     0.040     2.449     2.447
    35   1 H        0.925     0.052     2.300     2.372
    36   1 H        0.925     0.053     2.287     2.365
    37   1 H        0.925     0.044     2.397     2.421
    38   1 H        0.925     0.043     2.413     2.429
    39   1 H        0.925     0.041     2.442     2.444
    40   1 H        0.925     0.052     2.290     2.366
    41   1 H        0.925     0.055     2.259     2.351
    42   1 H        0.925     0.043     2.406     2.426
    43   1 H        0.925     0.053     2.286     2.364
    44   1 H        0.925     0.044     2.402     2.424
    45   1 H        0.925     0.032     2.564     2.504
    46   1 H        0.925     0.054     2.269     2.356
    47   1 H        0.925     0.040     2.454     2.450
    48   1 H        0.925     0.052     2.294     2.369
    49   1 H        0.925     0.052     2.296     2.369
    50   1 H        0.925     0.044     2.400     2.423
    51   1 H        0.925     0.042     2.419     2.432
    52   1 H        0.925     0.043     2.415     2.430
    53   1 H        0.925     0.052     2.289     2.366
    54   1 H        0.925     0.044     2.396     2.421
    55   1 H        0.925     0.040     2.452     2.449
    56   1 H        0.925     0.052     2.294     2.369
    57   1 H        0.925     0.054     2.265     2.353
    58   1 H        0.926     0.036     2.500     2.473
    59   1 H        0.925     0.027     2.624     2.533
    60   1 H        0.925     0.019     2.750     2.593

 Mol. C6AA /au·bohr⁶  :      32425.938243
 Mol. C8AA /au·bohr⁸  :     749633.568839
 Mol. α(0) /au        :        270.073746


Wiberg/Mayer (AO) data.
largest (>0.10) Wiberg bond orders for each atom

 ---------------------------------------------------------------------------
     #   Z sym  total        # sym  WBO       # sym  WBO       # sym  WBO
 ---------------------------------------------------------------------------
     1   6 C    3.994 --     2 C    0.997    34 H    0.984    33 H    0.982
                            35 H    0.982
     2   6 C    3.943 --     1 C    0.997     4 C    0.991     3 O    0.952
                             5 C    0.936
     3   8 O    2.232 --     9 B    1.129     2 C    0.952
     4   6 C    3.994 --     2 C    0.991    38 H    0.984    37 H    0.984
                            36 H    0.983
     5   6 C    3.941 --     6 C    0.997     7 C    0.991     8 O    0.951
                             2 C    0.936
     6   6 C    3.994 --     5 C    0.997    39 H    0.984    41 H    0.982
                            40 H    0.982
     7   6 C    3.995 --     5 C    0.991    42 H    0.984    44 H    0.984
                            43 H    0.983
     8   8 O    2.236 --     9 B    1.134     5 C    0.951
     9   5 B    3.378 --     8 O    1.134     3 O    1.129    10 C    0.996
    10   6 C    3.958 --    11 C    1.623     9 B    0.996    27 C    0.926
                            29 C    0.235
    11   6 C    3.984 --    10 C    1.623    12 C    1.147    45 H    0.965
                            30 C    0.113
    12   6 C    3.955 --    11 C    1.147    13 H    0.970    14 C    0.896
                            31 C    0.820
    13   1 H    0.999 --    12 C    0.970
    14   6 C    3.936 --    16 C    1.035    15 H    0.969    31 C    0.912
                            12 C    0.896
    15   1 H    0.998 --    14 C    0.969
    16   6 C    3.979 --    26 C    1.824    14 C    1.035    17 B    0.997
    17   5 B    3.375 --    25 O    1.132    18 O    1.127    16 C    0.997
    18   8 O    2.232 --    17 B    1.127    19 C    0.953
    19   6 C    3.943 --    20 C    0.997    21 C    0.991    18 O    0.953
                            22 C    0.937
    20   6 C    3.994 --    19 C    0.997    47 H    0.985    46 H    0.983
                            48 H    0.982
    21   6 C    3.994 --    19 C    0.991    51 H    0.984    50 H    0.984
                            49 H    0.983
    22   6 C    3.943 --    24 C    0.996    23 C    0.991    25 O    0.953
                            19 C    0.937
    23   6 C    3.995 --    22 C    0.991    52 H    0.984    54 H    0.984
                            53 H    0.983
    24   6 C    3.994 --    22 C    0.996    55 H    0.985    57 H    0.983
                            56 H    0.982
    25   8 O    2.235 --    17 B    1.132    22 C    0.953
    26   6 C    3.988 --    16 C    1.824    27 C    1.016    58 H    0.967
    27   6 C    3.980 --    26 C    1.016    28 H    0.968    29 C    0.955
                            10 C    0.926
    28   1 H    0.998 --    27 C    0.968
    29   6 C    3.973 --    30 C    1.678    59 H    0.969    27 C    0.955
                            10 C    0.235
    30   6 C    3.978 --    29 C    1.678    31 C    1.127    60 H    0.967
                            11 C    0.113
    31   6 C    3.951 --    30 C    1.127    32 H    0.970    14 C    0.912
                            12 C    0.820
    32   1 H    0.999 --    31 C    0.970
    33   1 H    0.997 --     1 C    0.982
    34   1 H    0.998 --     1 C    0.984
    35   1 H    0.997 --     1 C    0.982
    36   1 H    0.997 --     4 C    0.983
    37   1 H    0.998 --     4 C    0.984
    38   1 H    0.998 --     4 C    0.984
    39   1 H    0.998 --     6 C    0.984
    40   1 H    0.997 --     6 C    0.982
    41   1 H    0.997 --     6 C    0.982
    42   1 H    0.998 --     7 C    0.984
    43   1 H    0.997 --     7 C    0.983
    44   1 H    0.998 --     7 C    0.984
    45   1 H    0.999 --    11 C    0.965
    46   1 H    0.997 --    20 C    0.983
    47   1 H    0.998 --    20 C    0.985
    48   1 H    0.997 --    20 C    0.982
    49   1 H    0.997 --    21 C    0.983
    50   1 H    0.998 --    21 C    0.984
    51   1 H    0.998 --    21 C    0.984
    52   1 H    0.998 --    23 C    0.984
    53   1 H    0.997 --    23 C    0.983
    54   1 H    0.998 --    23 C    0.984
    55   1 H    0.998 --    24 C    0.985
    56   1 H    0.997 --    24 C    0.982
    57   1 H    0.997 --    24 C    0.983
    58   1 H    0.999 --    26 C    0.967
    59   1 H    0.999 --    29 C    0.969
    60   1 H    0.999 --    30 C    0.967
 ---------------------------------------------------------------------------

Topologies differ in total number of bonds
Writing topology from bond orders to xtbtopo.mol

molecular dipole:
                 x           y           z       tot (Debye)
 q only:       -0.211      -0.556       0.047
   full:       -0.112      -0.651      -0.006       1.680
molecular quadrupole (traceless):
                xx          xy          yy          xz          yz          zz
 q only:      -50.893      14.343      67.637     -24.916     -29.096     -16.744
  q+dip:      -53.717       5.957      78.948     -19.080     -27.522     -25.232
   full:      -54.721       4.662      80.707     -20.452     -28.791     -25.985

           -------------------------------------------------
          |                Geometry Summary                 |
           -------------------------------------------------

      molecular mass/u    :      382.1099696
   center of mass at/Å    :        2.9509815     -35.9155124      21.8301150
  moments of inertia/u·Å² :        0.1259031E+04   0.6684094E+04   0.7063686E+04
rotational constants/cm⁻¹ :        0.1338937E-01   0.2522052E-02   0.2386521E-02

 * 62 selected distances

     #   Z          #   Z                                           value/Å
     1   6 C        2   6 C                                       1.5270029
     2   6 C        3   8 O                                       1.4269404
     2   6 C        4   6 C                                       1.5339381
     5   6 C        6   6 C                                       1.5270372
     5   6 C        7   6 C                                       1.5337527
     5   6 C        8   8 O                                       1.4283501
     3   8 O        9   5 B                                       1.3673780
     8   8 O        9   5 B                                       1.3654013
     9   5 B       10   6 C                                       1.5637249 (max)
    10   6 C       11   6 C                                       1.3631234
    11   6 C       12   6 C                                       1.4463532
    12   6 C       13   1 H                                       1.0859957
    12   6 C       14   6 C                                       1.5078007
    14   6 C       15   1 H                                       1.0831869
    14   6 C       16   6 C                                       1.4790542
    16   6 C       17   5 B                                       1.5614590
    17   5 B       18   8 O                                       1.3682631
    18   8 O       19   6 C                                       1.4270859
    19   6 C       20   6 C                                       1.5268400
    19   6 C       21   6 C                                       1.5341672
    22   6 C       23   6 C                                       1.5339031
    22   6 C       24   6 C                                       1.5271559
    17   5 B       25   8 O                                       1.3664158
    22   6 C       25   8 O                                       1.4272000
    16   6 C       26   6 C                                       1.3345911
    10   6 C       27   6 C                                       1.4978042
    26   6 C       27   6 C                                       1.4850903
    27   6 C       28   1 H                                       1.0881172
    27   6 C       29   6 C                                       1.4808194
    29   6 C       30   6 C                                       1.3506150
    12   6 C       31   6 C                                       1.5044378
    14   6 C       31   6 C                                       1.5015105
    30   6 C       31   6 C                                       1.4507581
    31   6 C       32   1 H                                       1.0862838
     1   6 C       33   1 H                                       1.0872199
     1   6 C       34   1 H                                       1.0865821
     1   6 C       35   1 H                                       1.0851643
     4   6 C       36   1 H                                       1.0876830
     4   6 C       37   1 H                                       1.0870863
     4   6 C       38   1 H                                       1.0857354
     6   6 C       39   1 H                                       1.0865998
     6   6 C       40   1 H                                       1.0850530
     6   6 C       41   1 H                                       1.0870899
     7   6 C       42   1 H                                       1.0858137
     7   6 C       43   1 H                                       1.0875304
     7   6 C       44   1 H                                       1.0870629
    11   6 C       45   1 H                                       1.0818844
    20   6 C       46   1 H                                       1.0872132
    20   6 C       47   1 H                                       1.0866781
    20   6 C       48   1 H                                       1.0850946
    21   6 C       49   1 H                                       1.0876499
    21   6 C       50   1 H                                       1.0871146
    21   6 C       51   1 H                                       1.0858143
    23   6 C       52   1 H                                       1.0858941
    23   6 C       53   1 H                                       1.0875321
    23   6 C       54   1 H                                       1.0870436
    24   6 C       55   1 H                                       1.0866504
    24   6 C       56   1 H                                       1.0851067
    24   6 C       57   1 H                                       1.0871302
    26   6 C       58   1 H                                       1.0811608 (min)
    29   6 C       59   1 H                                       1.0837873
    30   6 C       60   1 H                                       1.0823305

 * 5 distinct bonds (by element types)

   Z      Z             #   av. dist./Å        max./Å        min./Å
   1 H    6 C          32     1.0859465     1.0881172     1.0811608
   5 B    6 C           2     1.5625919     1.5637249     1.5614590
   6 C    6 C          20     1.4822877     1.5341672     1.3345911
   5 B    8 O           4     1.3668646     1.3682631     1.3654013
   6 C    8 O           4     1.4273941     1.4283501     1.4269404


optimized geometry written to: xtbopt.xyz


           -------------------------------------------------
          | TOTAL ENERGY              -82.301375920491 Eh   |
          | GRADIENT NORM               0.000367884736 Eh/α |
          | HOMO-LUMO GAP               2.811665035477 eV   |
           -------------------------------------------------

------------------------------------------------------------------------
 * finished run on 2022/07/09 at 18:33:05.899     
------------------------------------------------------------------------
 total:
 * wall-time:     0 d,  0 h,  0 min,  1.227 sec
 *  cpu-time:     0 d,  0 h,  0 min,  1.227 sec
 * ratio c/w:     1.000 speedup
 SCF:
 * wall-time:     0 d,  0 h,  0 min,  0.066 sec
 *  cpu-time:     0 d,  0 h,  0 min,  0.066 sec
 * ratio c/w:     1.000 speedup
 ANC optimizer:
 * wall-time:     0 d,  0 h,  0 min,  1.150 sec
 *  cpu-time:     0 d,  0 h,  0 min,  1.150 sec
 * ratio c/w:     1.000 speedup

