      -----------------------------------------------------------      
     |                   =====================                   |     
     |                           x T B                           |     
     |                   =====================                   |     
     |                         S. Grimme                         |     
     |          Mulliken Center for Theoretical Chemistry        |     
     |                    University of Bonn                     |     
      -----------------------------------------------------------      

   * xtb version 6.5.0 (homebrew) compiled by 'nhattrup@GPGGRP-SHANNON.CHEME.CMU.EDU' on 

   xtb is free software: you can redistribute it and/or modify it under
   the terms of the GNU Lesser General Public License as published by
   the Free Software Foundation, either version 3 of the License, or
   (at your option) any later version.
   
   xtb is distributed in the hope that it will be useful,
   but WITHOUT ANY WARRANTY; without even the implied warranty of
   MERCHANTABILITY or FITNESS FOR A PARTICULAR PURPOSE.  See the
   GNU Lesser General Public License for more details.
   
   Cite this work as:
   * C. Bannwarth, E. Caldeweyher, S. Ehlert, A. Hansen, P. Pracht,
     J. Seibert, S. Spicher, S. Grimme, WIREs Comput. Mol. Sci., 2020, 11,
     e01493. DOI: 10.1002/wcms.1493
   
   for GFN2-xTB:
   * C. Bannwarth, S. Ehlert and S. Grimme., J. Chem. Theory Comput., 2019,
     15, 1652-1671. DOI: 10.1021/acs.jctc.8b01176
   for GFN1-xTB:
   * S. Grimme, C. Bannwarth, P. Shushkov, J. Chem. Theory Comput., 2017,
     13, 1989-2009. DOI: 10.1021/acs.jctc.7b00118
   for GFN0-xTB:
   * P. Pracht, E. Caldeweyher, S. Ehlert, S. Grimme, ChemRxiv, 2019, preprint.
     DOI: 10.26434/chemrxiv.8326202.v1
   for GFN-FF:
   * S. Spicher and S. Grimme, Angew. Chem. Int. Ed., 2020, 59, 15665-15673.
     DOI: 10.1002/anie.202004239
   
   for ALPB and GBSA implicit solvation:
   * S. Ehlert, M. Stahn, S. Spicher, S. Grimme, J. Chem. Theory Comput.,
     2021, 17, 4250-4261. DOI: 10.1021/acs.jctc.1c00471
   
   for DFT-D4:
   * E. Caldeweyher, C. Bannwarth and S. Grimme, J. Chem. Phys., 2017,
     147, 034112. DOI: 10.1063/1.4993215
   * E. Caldeweyher, S. Ehlert, A. Hansen, H. Neugebauer, S. Spicher,
     C. Bannwarth and S. Grimme, J. Chem. Phys., 2019, 150, 154122.
     DOI: 10.1063/1.5090222
   * E. Caldeweyher, J.-M. Mewes, S. Ehlert and S. Grimme, Phys. Chem. Chem. Phys.
     2020, 22, 8499-8512. DOI: 10.1039/D0CP00502A
   
   for sTDA-xTB:
   * S. Grimme and C. Bannwarth, J. Chem. Phys., 2016, 145, 054103.
     DOI: 10.1063/1.4959605
   
   in the mass-spec context:
   * V. Asgeirsson, C. Bauer and S. Grimme, Chem. Sci., 2017, 8, 4879.
     DOI: 10.1039/c7sc00601b
   * J. Koopman and S. Grimme, ACS Omega 2019, 4, 12, 15120-15133.
     DOI: 10.1021/acsomega.9b02011
   
   for metadynamics refer to:
   * S. Grimme, J. Chem. Theory Comput., 2019, 155, 2847-2862
     DOI: 10.1021/acs.jctc.9b00143
   
   for SPH calculations refer to:
   * S. Spicher and S. Grimme, J. Chem. Theory Comput., 2021, 17, 1701-1714
     DOI: 10.1021/acs.jctc.0c01306
   
   with help from (in alphabetical order)
   P. Atkinson, C. Bannwarth, F. Bohle, G. Brandenburg, E. Caldeweyher
   M. Checinski, S. Dohm, S. Ehlert, S. Ehrlich, I. Gerasimov, C. Hölzer
   A. Katbashev, J. Koopman, C. Lavigne, S. Lehtola, F. März, M. Müller,
   F. Musil, H. Neugebauer, J. Pisarek, C. Plett, P. Pracht, F. Pultar,
   J. Seibert, P. Shushkov, S. Spicher, M. Stahn, M. Steiner, T. Strunk,
   J. Stückrath, T. Rose, and J. Unsleber
   
 * started run on 2022/07/09 at 18:33:37.947     

           -------------------------------------------------
          |                Calculation Setup                |
           -------------------------------------------------

          program call               : /opt/homebrew/bin/xtb bvl_bpin2_scan_9-5_xtb.xyz --chrg 0 --uhf 0 --opt --input xcontrol_bvl_bpin2_scan_9-5_xtb
          coordinate file            : bvl_bpin2_scan_9-5_xtb.xyz
          omp threads                :                     1

   ID    Z sym.   atoms
    1    6 C      1, 2, 4-7, 10-12, 14, 16, 19-24, 26, 27, 29-31
    2    8 O      3, 8, 18, 25
    3    5 B      9, 17
    4    1 H      13, 15, 28, 32-60
constraining bond 12 31 to    2.5000000 Å, actual value:    2.3871247 Å
constraining bond 10 29 to    1.9444000 Å, actual value:    2.0513687 Å

           -------------------------------------------------
          |                 G F N 2 - x T B                 |
           -------------------------------------------------

        Reference                      10.1021/acs.jctc.8b01176
      * Hamiltonian:
        H0-scaling (s, p, d)           1.850000    2.230000    2.230000
        zeta-weighting                 0.500000
      * Dispersion:
        s8                             2.700000
        a1                             0.520000
        a2                             5.000000
        s9                             5.000000
      * Repulsion:
        kExp                           1.500000    1.000000
        rExp                           1.000000
      * Coulomb:
        alpha                          2.000000
        third order                    shell-resolved
        anisotropic                    true
        a3                             3.000000
        a5                             4.000000
        cn-shift                       1.200000
        cn-exp                         4.000000
        max-rad                        5.000000


          ...................................................
          :                      SETUP                      :
          :.................................................:
          :  # basis functions                 144          :
          :  # atomic orbitals                 144          :
          :  # shells                           88          :
          :  # electrons                       150          :
          :  max. iterations                   250          :
          :  Hamiltonian                  GFN2-xTB          :
          :  restarted?                      false          :
          :  GBSA solvation                  false          :
          :  PC potential                    false          :
          :  electronic temp.          300.0000000     K    :
          :  accuracy                    1.0000000          :
          :  -> integral cutoff          0.2500000E+02      :
          :  -> integral neglect         0.1000000E-07      :
          :  -> SCF convergence          0.1000000E-05 Eh   :
          :  -> wf. convergence          0.1000000E-03 e    :
          :  Broyden damping             0.4000000          :
          ...................................................

 iter      E             dE          RMSdq      gap      omega  full diag
   1    -82.9315379 -0.829315E+02  0.475E+00    2.10       0.0  T
   2    -83.3058179 -0.374280E+00  0.293E+00    1.97       1.0  T
   3    -83.2989519  0.686606E-02  0.161E+00    2.19       1.0  T
   4    -83.2881267  0.108251E-01  0.109E+00    2.16       1.0  T
   5    -83.3601621 -0.720353E-01  0.291E-01    2.06       1.0  T
   6    -83.3646951 -0.453304E-02  0.119E-01    2.06       1.0  T
   7    -83.3645984  0.966749E-04  0.645E-02    2.05       1.0  T
   8    -83.3648024 -0.204008E-03  0.209E-02    2.06       1.0  T
   9    -83.3648218 -0.193662E-04  0.749E-03    2.06       1.7  T
  10    -83.3648234 -0.159943E-05  0.370E-03    2.06       3.5  T
  11    -83.3648236 -0.214234E-06  0.160E-03    2.06       8.0  T
  12    -83.3648237 -0.821853E-07  0.371E-04    2.06      34.8  T
  13    -83.3648237 -0.109725E-08  0.219E-04    2.06      58.9  T

   *** convergence criteria satisfied after 13 iterations ***

         #    Occupation            Energy/Eh            Energy/eV
      -------------------------------------------------------------
         1        2.0000           -0.6884408             -18.7334
       ...           ...                  ...                  ...
        69        2.0000           -0.4013664             -10.9217
        70        2.0000           -0.3976698             -10.8211
        71        2.0000           -0.3963874             -10.7863
        72        2.0000           -0.3940222             -10.7219
        73        2.0000           -0.3920402             -10.6680
        74        2.0000           -0.3629507              -9.8764
        75        2.0000           -0.3318512              -9.0301 (HOMO)
        76                         -0.2562770              -6.9737 (LUMO)
        77                         -0.2189731              -5.9586
        78                         -0.1828250              -4.9749
        79                         -0.1440337              -3.9194
        80                         -0.0954056              -2.5961
       ...                                ...                  ...
       144                          0.6773288              18.4311
      -------------------------------------------------------------
                  HL-Gap            0.0755741 Eh            2.0565 eV
             Fermi-level           -0.2940641 Eh           -8.0019 eV

 SCC (total)                   0 d,  0 h,  0 min,  0.071 sec
 SCC setup                      ...        0 min,  0.000 sec (  0.353%)
 Dispersion                     ...        0 min,  0.000 sec (  0.665%)
 classical contributions        ...        0 min,  0.000 sec (  0.251%)
 integral evaluation            ...        0 min,  0.006 sec (  8.830%)
 iterations                     ...        0 min,  0.036 sec ( 50.382%)
 molecular gradient             ...        0 min,  0.028 sec ( 39.020%)
 printout                       ...        0 min,  0.000 sec (  0.489%)

         :::::::::::::::::::::::::::::::::::::::::::::::::::::
         ::                     SUMMARY                     ::
         :::::::::::::::::::::::::::::::::::::::::::::::::::::
         :: total energy             -82.116896700867 Eh    ::
         :: gradient norm              1.680518005261 Eh/a0 ::
         :: HOMO-LUMO gap              2.056476928531 eV    ::
         ::.................................................::
         :: SCC energy               -83.364823697920 Eh    ::
         :: -> isotropic ES            0.148028120898 Eh    ::
         :: -> anisotropic ES          0.012000400530 Eh    ::
         :: -> anisotropic XC          0.027388802078 Eh    ::
         :: -> dispersion             -0.062658295911 Eh    ::
         :: repulsion energy           1.074506253545 Eh    ::
         :: add. restraining           0.172718950214 Eh    ::
         :: total charge              -0.000000000000 e     ::
         :::::::::::::::::::::::::::::::::::::::::::::::::::::

      ----------------------------------------------------------- 
     |                   =====================                   |
     |                        A N C O P T                        |
     |                   =====================                   |
     |               Approximate Normal Coordinate               |
     |                Rational Function Optimizer                |
      ----------------------------------------------------------- 

          ...................................................
          :                      SETUP                      :
          :.................................................:
          :   optimization level            normal          :
          :   max. optcycles                   200          :
          :   ANC micro-cycles                  20          :
          :   degrees of freedom               174          :
          :.................................................:
          :   RF solver                   davidson          :
          :   write xtbopt.log                true          :
          :   linear?                        false          :
          :   energy convergence         0.5000000E-05 Eh   :
          :   grad. convergence          0.1000000E-02 Eh/α :
          :   maximium RF displ.         1.0000000          :
          :   Hlow (freq-cutoff)         0.1000000E-01      :
          :   Hmax (freq-cutoff)         5.0000000          :
          :   S6 in model hess.         20.0000000          :
          ...................................................

generating ANC from model Hessian ...
Using Lindh-Hessian (1995)
 Shifting diagonal of input Hessian by   0.20513970019957137     
 Lowest  eigenvalues of input Hessian
    0.010000    0.160028    0.000000    0.000000    0.000000    0.000000
    0.000000    0.000000    0.205252    0.205280    0.205433    0.206766
    0.207036    0.208030    0.208429    0.208498    0.209657    0.210239
 Highest eigenvalues
    1.916369    2.092484    2.104768    2.154871    8.829356    8.892499


........................................................................
.............................. CYCLE    1 ..............................
........................................................................
   1    -83.3648237 -0.833648E+02  0.895E-05    2.06       0.0  T
   2    -83.3648237 -0.255454E-09  0.654E-05    2.06     197.4  T
   3    -83.3648237 -0.201396E-09  0.293E-05    2.06     440.6  T
     SCC iter.                  ...        0 min,  0.009 sec
     gradient                   ...        0 min,  0.028 sec
 * total energy  :   -82.1168967 Eh     change       -0.1330619E-08 Eh
   gradient norm :     1.6805199 Eh/α   predicted     0.0000000E+00 (-100.00%)
   displ. norm   :     0.3118184 α      lambda       -0.5169579E+00
   maximum displ.:     0.2945347 α      in ANC's #174, #173, #127, ...

........................................................................
.............................. CYCLE    2 ..............................
........................................................................
   1    -83.3639509 -0.833640E+02  0.316E-01    2.62       0.0  T
   2    -83.3638617  0.892413E-04  0.256E-01    2.61       1.0  T
   3    -83.3649620 -0.110031E-02  0.146E-01    2.61       1.0  T
   4    -83.3653516 -0.389580E-03  0.334E-02    2.61       1.0  T
   5    -83.3654060 -0.544663E-04  0.104E-02    2.61       1.2  T
   6    -83.3654110 -0.499681E-05  0.372E-03    2.61       3.5  T
   7    -83.3654112 -0.173662E-06  0.158E-03    2.61       8.2  T
   8    -83.3654112 -0.230178E-07  0.923E-04    2.61      14.0  T
   9    -83.3654113 -0.381409E-07  0.219E-04    2.61      58.9  T
     SCC iter.                  ...        0 min,  0.025 sec
     gradient                   ...        0 min,  0.028 sec
 * total energy  :   -82.2476044 Eh     change       -0.1307077E+00 Eh
   gradient norm :     0.8411791 Eh/α   predicted    -0.2837299E+00 ( 117.07%)
   displ. norm   :     0.1055722 α      lambda       -0.8537544E-01
   maximum displ.:     0.0966488 α      in ANC's #174, #173, #127, ...

........................................................................
.............................. CYCLE    3 ..............................
........................................................................
   1    -83.3646775 -0.833647E+02  0.111E-01    2.42       0.0  T
   2    -83.3646717  0.578238E-05  0.885E-02    2.43       1.0  T
   3    -83.3648031 -0.131346E-03  0.528E-02    2.43       1.0  T
   4    -83.3648601 -0.570915E-04  0.134E-02    2.43       1.0  T
   5    -83.3648685 -0.836061E-05  0.490E-03    2.43       2.6  T
   6    -83.3648698 -0.133514E-05  0.151E-03    2.43       8.5  T
   7    -83.3648699 -0.193721E-07  0.932E-04    2.43      13.8  T
   8    -83.3648699 -0.298539E-07  0.273E-04    2.43      47.3  T
     SCC iter.                  ...        0 min,  0.022 sec
     gradient                   ...        0 min,  0.028 sec
 * total energy  :   -82.2912510 Eh     change       -0.4364668E-01 Eh
   gradient norm :     0.0286430 Eh/α   predicted    -0.4316356E-01 (  -1.11%)
   displ. norm   :     0.0404517 α      lambda       -0.7419637E-03
   maximum displ.:     0.0154016 α      in ANC's #36, #37, #127, ...

........................................................................
.............................. CYCLE    4 ..............................
........................................................................
   1    -83.3638623 -0.833639E+02  0.267E-02    2.42       0.0  T
   2    -83.3638637 -0.136382E-05  0.167E-02    2.42       1.0  T
   3    -83.3638559  0.781871E-05  0.129E-02    2.42       1.0  T
   4    -83.3638656 -0.973156E-05  0.217E-03    2.42       5.9  T
   5    -83.3638658 -0.236186E-06  0.565E-04    2.42      22.9  T
   6    -83.3638658 -0.120187E-07  0.347E-04    2.42      37.2  T
     SCC iter.                  ...        0 min,  0.017 sec
     gradient                   ...        0 min,  0.028 sec
 * total energy  :   -82.2918802 Eh     change       -0.6291087E-03 Eh
   gradient norm :     0.0163252 Eh/α   predicted    -0.3975975E-03 ( -36.80%)
   displ. norm   :     0.1031179 α      lambda       -0.1171911E-02
   maximum displ.:     0.0452840 α      in ANC's #36, #37, #38, ...

........................................................................
.............................. CYCLE    5 ..............................
........................................................................
   1    -83.3620690 -0.833621E+02  0.634E-02    2.43       0.0  T
   2    -83.3620726 -0.361832E-05  0.385E-02    2.43       1.0  T
   3    -83.3620249  0.476641E-04  0.306E-02    2.43       1.0  T
   4    -83.3620817 -0.567974E-04  0.398E-03    2.43       3.2  T
   5    -83.3620825 -0.751437E-06  0.129E-03    2.43      10.0  T
   6    -83.3620826 -0.764425E-07  0.655E-04    2.43      19.7  T
   7    -83.3620826 -0.749363E-08  0.296E-04    2.43      43.6  T
     SCC iter.                  ...        0 min,  0.019 sec
     gradient                   ...        0 min,  0.028 sec
 * total energy  :   -82.2925471 Eh     change       -0.6669528E-03 Eh
   gradient norm :     0.0189872 Eh/α   predicted    -0.5924457E-03 ( -11.17%)
   displ. norm   :     0.0719403 α      lambda       -0.3319719E-03
   maximum displ.:     0.0402823 α      in ANC's #1, #36, #37, ...

........................................................................
.............................. CYCLE    6 ..............................
........................................................................
   1    -83.3620463 -0.833620E+02  0.402E-02    2.42       0.0  T
   2    -83.3620466 -0.339139E-06  0.238E-02    2.42       1.0  T
   3    -83.3620387  0.791722E-05  0.108E-02    2.42       1.2  T
   4    -83.3620472 -0.847456E-05  0.137E-03    2.42       9.4  T
   5    -83.3620473 -0.818295E-07  0.526E-04    2.42      24.6  T
   6    -83.3620473 -0.460322E-08  0.306E-04    2.42      42.1  T
     SCC iter.                  ...        0 min,  0.016 sec
     gradient                   ...        0 min,  0.028 sec
 * total energy  :   -82.2927384 Eh     change       -0.1912659E-03 Eh
   gradient norm :     0.0155157 Eh/α   predicted    -0.1669290E-03 ( -12.72%)
   displ. norm   :     0.2981309 α      lambda       -0.1349019E-02
   maximum displ.:     0.1513934 α      in ANC's #1, #36, #37, ...

........................................................................
.............................. CYCLE    7 ..............................
........................................................................
   1    -83.3604302 -0.833604E+02  0.161E-01    2.40       0.0  T
   2    -83.3604345 -0.430103E-05  0.947E-02    2.40       1.0  T
   3    -83.3603184  0.116029E-03  0.428E-02    2.40       1.0  T
   4    -83.3604429 -0.124478E-03  0.436E-03    2.40       3.0  T
   5    -83.3604437 -0.764074E-06  0.180E-03    2.40       7.2  T
   6    -83.3604437 -0.131066E-07  0.118E-03    2.40      10.9  T
   7    -83.3604437 -0.422841E-07  0.356E-04    2.40      36.3  T
   8    -83.3604437 -0.374664E-08  0.162E-04    2.40      79.5  T
     SCC iter.                  ...        0 min,  0.022 sec
     gradient                   ...        0 min,  0.028 sec
 * total energy  :   -82.2919043 Eh     change        0.8340895E-03 Eh
   gradient norm :     0.0975269 Eh/α   predicted    -0.7346361E-03 (-188.08%)
   displ. norm   :     0.1398882 α      lambda       -0.2753889E-02
   maximum displ.:     0.1164804 α      in ANC's #1, #36, #38, ...

........................................................................
.............................. CYCLE    8 ..............................
........................................................................
   1    -83.3635849 -0.833636E+02  0.831E-02    2.42       0.0  T
   2    -83.3635871 -0.214137E-05  0.493E-02    2.42       1.0  T
   3    -83.3635787  0.842338E-05  0.117E-02    2.42       1.1  T
   4    -83.3635876 -0.891906E-05  0.314E-03    2.42       4.1  T
   5    -83.3635881 -0.513876E-06  0.899E-04    2.42      14.4  T
   6    -83.3635881  0.456980E-08  0.575E-04    2.42      22.5  T
     SCC iter.                  ...        0 min,  0.017 sec
     gradient                   ...        0 min,  0.028 sec
 * total energy  :   -82.2933320 Eh     change       -0.1427748E-02 Eh
   gradient norm :     0.0124585 Eh/α   predicted    -0.1403836E-02 (  -1.67%)
   displ. norm   :     0.0312165 α      lambda       -0.2023276E-03
   maximum displ.:     0.0122824 α      in ANC's #28, #17, #36, ...

........................................................................
.............................. CYCLE    9 ..............................
........................................................................
   1    -83.3648995 -0.833649E+02  0.172E-02    2.41       0.0  T
   2    -83.3649000 -0.458647E-06  0.104E-02    2.41       1.2  T
   3    -83.3648984  0.156306E-05  0.526E-03    2.41       2.5  T
   4    -83.3649001 -0.169429E-05  0.129E-03    2.41      10.0  T
   5    -83.3649002 -0.963534E-07  0.264E-04    2.41      48.9  T
   6    -83.3649002 -0.123184E-08  0.176E-04    2.41      73.4  T
     SCC iter.                  ...        0 min,  0.016 sec
     gradient                   ...        0 min,  0.028 sec
 * total energy  :   -82.2934913 Eh     change       -0.1592868E-03 Eh
   gradient norm :     0.0061723 Eh/α   predicted    -0.1012943E-03 ( -36.41%)
   displ. norm   :     0.0990380 α      lambda       -0.2733204E-03
   maximum displ.:     0.0416522 α      in ANC's #28, #36, #17, ...

........................................................................
.............................. CYCLE   10 ..............................
........................................................................
   1    -83.3666906 -0.833667E+02  0.456E-02    2.40       0.0  T
   2    -83.3666915 -0.878214E-06  0.269E-02    2.40       1.0  T
   3    -83.3666853  0.626005E-05  0.107E-02    2.40       1.2  T
   4    -83.3666918 -0.654511E-05  0.204E-03    2.40       6.3  T
   5    -83.3666921 -0.262476E-06  0.456E-04    2.40      28.3  T
   6    -83.3666921 -0.165517E-08  0.256E-04    2.40      50.3  T
     SCC iter.                  ...        0 min,  0.017 sec
     gradient                   ...        0 min,  0.029 sec
 * total energy  :   -82.2936619 Eh     change       -0.1705795E-03 Eh
   gradient norm :     0.0071482 Eh/α   predicted    -0.1380917E-03 ( -19.05%)
   displ. norm   :     0.0530106 α      lambda       -0.8387664E-04
   maximum displ.:     0.0235318 α      in ANC's #28, #17, #36, ...

........................................................................
.............................. CYCLE   11 ..............................
........................................................................
   1    -83.3674702 -0.833675E+02  0.226E-02    2.39       0.0  T
   2    -83.3674703 -0.116029E-06  0.134E-02    2.39       1.0  T
   3    -83.3674683  0.201409E-05  0.577E-03    2.39       2.2  T
   4    -83.3674705 -0.216568E-05  0.549E-04    2.39      23.5  T
   5    -83.3674705 -0.119723E-07  0.245E-04    2.39      52.8  T
   6    -83.3674705 -0.696687E-09  0.180E-04    2.39      71.8  T
     SCC iter.                  ...        0 min,  0.017 sec
     gradient                   ...        0 min,  0.027 sec
 * total energy  :   -82.2937277 Eh     change       -0.6581005E-04 Eh
   gradient norm :     0.0061373 Eh/α   predicted    -0.4206230E-04 ( -36.09%)
   displ. norm   :     0.0799471 α      lambda       -0.1253365E-03
   maximum displ.:     0.0361202 α      in ANC's #28, #17, #14, ...

........................................................................
.............................. CYCLE   12 ..............................
........................................................................
   1    -83.3684200 -0.833684E+02  0.320E-02    2.38       0.0  T
   2    -83.3684201 -0.913973E-07  0.194E-02    2.38       1.0  T
   3    -83.3684115  0.861957E-05  0.119E-02    2.38       1.1  T
   4    -83.3684209 -0.941922E-05  0.612E-04    2.38      21.1  T
   5    -83.3684209 -0.606448E-08  0.314E-04    2.38      41.2  T
   6    -83.3684209  0.423654E-09  0.247E-04    2.38      52.2  T
     SCC iter.                  ...        0 min,  0.017 sec
     gradient                   ...        0 min,  0.028 sec
 * total energy  :   -82.2938122 Eh     change       -0.8445991E-04 Eh
   gradient norm :     0.0035751 Eh/α   predicted    -0.6306289E-04 ( -25.33%)
   displ. norm   :     0.0449559 α      lambda       -0.6162584E-04
   maximum displ.:     0.0201306 α      in ANC's #17, #28, #14, ...

........................................................................
.............................. CYCLE   13 ..............................
........................................................................
   1    -83.3687786 -0.833688E+02  0.168E-02    2.38       0.0  T
   2    -83.3687786 -0.135431E-07  0.104E-02    2.38       1.2  T
   3    -83.3687754  0.321291E-05  0.723E-03    2.38       1.8  T
   4    -83.3687790 -0.358475E-05  0.468E-04    2.38      27.6  T
   5    -83.3687790 -0.642704E-08  0.244E-04    2.38      52.9  T
   6    -83.3687790 -0.102226E-08  0.144E-04    2.38      89.7  T
     SCC iter.                  ...        0 min,  0.017 sec
     gradient                   ...        0 min,  0.028 sec
 * total energy  :   -82.2938566 Eh     change       -0.4443388E-04 Eh
   gradient norm :     0.0033237 Eh/α   predicted    -0.3087698E-04 ( -30.51%)
   displ. norm   :     0.0374520 α      lambda       -0.4914344E-04
   maximum displ.:     0.0161523 α      in ANC's #17, #14, #28, ...

........................................................................
.............................. CYCLE   14 ..............................
........................................................................
   1    -83.3687804 -0.833688E+02  0.142E-02    2.38       0.0  T
   2    -83.3687804 -0.464871E-07  0.877E-03    2.38       1.5  T
   3    -83.3687784  0.197324E-05  0.554E-03    2.38       2.3  T
   4    -83.3687806 -0.217426E-05  0.633E-04    2.38      20.4  T
   5    -83.3687806 -0.158925E-07  0.285E-04    2.38      45.3  T
   6    -83.3687806 -0.248357E-08  0.132E-04    2.38      98.0  T
     SCC iter.                  ...        0 min,  0.017 sec
     gradient                   ...        0 min,  0.027 sec
 * total energy  :   -82.2938909 Eh     change       -0.3428197E-04 Eh
   gradient norm :     0.0032316 Eh/α   predicted    -0.2464883E-04 ( -28.10%)
   displ. norm   :     0.0289258 α      lambda       -0.3218084E-04
   maximum displ.:     0.0115320 α      in ANC's #36, #17, #14, ...

........................................................................
.............................. CYCLE   15 ..............................
........................................................................
   1    -83.3685069 -0.833685E+02  0.118E-02    2.39       0.0  T
   2    -83.3685069 -0.420265E-07  0.717E-03    2.39       1.8  T
   3    -83.3685059  0.991238E-06  0.409E-03    2.39       3.2  T
   4    -83.3685070 -0.107580E-05  0.587E-04    2.39      22.0  T
   5    -83.3685070 -0.150351E-07  0.263E-04    2.39      49.2  T
   6    -83.3685070 -0.264630E-08  0.967E-05    2.39     133.5  T
     SCC iter.                  ...        0 min,  0.017 sec
     gradient                   ...        0 min,  0.028 sec
 * total energy  :   -82.2939142 Eh     change       -0.2327292E-04 Eh
   gradient norm :     0.0024820 Eh/α   predicted    -0.1611748E-04 ( -30.75%)
   displ. norm   :     0.0289681 α      lambda       -0.2763193E-04
   maximum displ.:     0.0116145 α      in ANC's #17, #36, #14, ...

........................................................................
.............................. CYCLE   16 ..............................
........................................................................
   1    -83.3680980 -0.833681E+02  0.116E-02    2.39       0.0  T
   2    -83.3680980 -0.352586E-07  0.711E-03    2.39       1.8  T
   3    -83.3680970  0.108573E-05  0.439E-03    2.39       2.9  T
   4    -83.3680981 -0.118332E-05  0.514E-04    2.39      25.1  T
   5    -83.3680981 -0.107040E-07  0.246E-04    2.39      52.6  T
   6    -83.3680982 -0.215435E-08  0.108E-04    2.39     119.8  T
     SCC iter.                  ...        0 min,  0.016 sec
     gradient                   ...        0 min,  0.028 sec
 * total energy  :   -82.2939339 Eh     change       -0.1974499E-04 Eh
   gradient norm :     0.0019764 Eh/α   predicted    -0.1383771E-04 ( -29.92%)
   displ. norm   :     0.0398331 α      lambda       -0.2179732E-04
   maximum displ.:     0.0162185 α      in ANC's #17, #14, #36, ...

........................................................................
.............................. CYCLE   17 ..............................
........................................................................
   1    -83.3675967 -0.833676E+02  0.150E-02    2.40       0.0  T
   2    -83.3675967 -0.657508E-07  0.920E-03    2.40       1.4  T
   3    -83.3675950  0.170748E-05  0.536E-03    2.40       2.4  T
   4    -83.3675969 -0.184978E-05  0.532E-04    2.40      24.3  T
   5    -83.3675969 -0.112168E-07  0.240E-04    2.40      53.7  T
   6    -83.3675969 -0.886487E-09  0.160E-04    2.40      80.8  T
     SCC iter.                  ...        0 min,  0.016 sec
     gradient                   ...        0 min,  0.028 sec
 * total energy  :   -82.2939527 Eh     change       -0.1877607E-04 Eh
   gradient norm :     0.0025104 Eh/α   predicted    -0.1091432E-04 ( -41.87%)
   displ. norm   :     0.0119492 α      lambda       -0.1092218E-04
   maximum displ.:     0.0045742 α      in ANC's #17, #14, #6, ...

........................................................................
.............................. CYCLE   18 ..............................
........................................................................
   1    -83.3676510 -0.833677E+02  0.500E-03    2.40       0.0  T
   2    -83.3676510 -0.103585E-07  0.301E-03    2.40       4.3  T
   3    -83.3676510  0.575268E-07  0.104E-03    2.40      12.4  T
   4    -83.3676510 -0.625589E-07  0.170E-04    2.40      76.0  T
   5    -83.3676510 -0.105932E-08  0.100E-04    2.40     129.0  T
     SCC iter.                  ...        0 min,  0.014 sec
     gradient                   ...        0 min,  0.028 sec
 * total energy  :   -82.2939619 Eh     change       -0.9246398E-05 Eh
   gradient norm :     0.0019257 Eh/α   predicted    -0.5470521E-05 ( -40.84%)
   displ. norm   :     0.0489332 α      lambda       -0.2217918E-04
   maximum displ.:     0.0191433 α      in ANC's #17, #6, #14, ...

........................................................................
.............................. CYCLE   19 ..............................
........................................................................
   1    -83.3680256 -0.833680E+02  0.185E-02    2.39       0.0  T
   2    -83.3680257 -0.120965E-06  0.111E-02    2.39       1.2  T
   3    -83.3680245  0.119472E-05  0.473E-03    2.39       2.7  T
   4    -83.3680258 -0.128943E-05  0.660E-04    2.39      19.5  T
   5    -83.3680258 -0.166644E-07  0.396E-04    2.39      32.6  T
   6    -83.3680258 -0.655226E-08  0.127E-04    2.39     101.3  T
     SCC iter.                  ...        0 min,  0.016 sec
     gradient                   ...        0 min,  0.028 sec
 * total energy  :   -82.2939747 Eh     change       -0.1275552E-04 Eh
   gradient norm :     0.0017275 Eh/α   predicted    -0.1110601E-04 ( -12.93%)
   displ. norm   :     0.0490845 α      lambda        0.3765367E-04
   maximum displ.:     0.0192037 α      in ANC's #17, #6, #14, ...

........................................................................
.............................. CYCLE   20 ..............................
........................................................................
   1    -83.3683201 -0.833683E+02  0.186E-02    2.39       0.0  T
   2    -83.3683202 -0.120609E-06  0.112E-02    2.39       1.2  T
   3    -83.3683189  0.128230E-05  0.487E-03    2.39       2.6  T
   4    -83.3683203 -0.138030E-05  0.690E-04    2.39      18.7  T
   5    -83.3683203 -0.192956E-07  0.403E-04    2.39      32.0  T
   6    -83.3683204 -0.674706E-08  0.129E-04    2.39     100.4  T
     SCC iter.                  ...        0 min,  0.016 sec
     gradient                   ...        0 min,  0.028 sec
 * total energy  :   -82.2939465 Eh     change        0.2821439E-04 Eh
   gradient norm :     0.0045578 Eh/α   predicted     0.1884678E-04 ( -33.20%)
   displ. norm   :     0.0348344 α      lambda       -0.4213715E-04
   maximum displ.:     0.0138321 α      in ANC's #17, #14, #6, ...
 * RMSD in coord.:     0.0990643 α      energy gain  -0.1770498E+00 Eh

generating ANC from model Hessian ...
Using Lindh-Hessian (1995)
 Shifting diagonal of input Hessian by    1.0204863768278970E-002
 Lowest  eigenvalues of input Hessian
    0.010000    0.000000    0.000000    0.000000    0.000000    0.000000
    0.000000    0.010299    0.010341    0.010349    0.010951    0.011976
    0.012542    0.013447    0.013494    0.013587    0.014682    0.015338
 Highest eigenvalues
    1.721066    1.895527    1.918803    1.931839    8.692276    8.751248


........................................................................
.............................. CYCLE   21 ..............................
........................................................................
   1    -83.3682009 -0.833682E+02  0.142E-02    2.39       0.0  T
   2    -83.3682010 -0.747967E-07  0.858E-03    2.39       1.5  T
   3    -83.3682002  0.791963E-06  0.382E-03    2.39       3.4  T
   4    -83.3682011 -0.854848E-06  0.542E-04    2.39      23.8  T
   5    -83.3682011 -0.119434E-07  0.319E-04    2.39      40.5  T
     SCC iter.                  ...        0 min,  0.014 sec
     gradient                   ...        0 min,  0.028 sec
 * total energy  :   -82.2939755 Eh     change       -0.2901307E-04 Eh
   gradient norm :     0.0020723 Eh/α   predicted     0.0000000E+00 (-100.00%)
   displ. norm   :     0.0358809 α      lambda       -0.1996075E-04
   maximum displ.:     0.0208687 α      in ANC's #6, #28, #8, ...

........................................................................
.............................. CYCLE   22 ..............................
........................................................................
   1    -83.3683840 -0.833684E+02  0.125E-02    2.39       0.0  T
   2    -83.3683840 -0.393436E-07  0.752E-03    2.39       1.7  T
   3    -83.3683836  0.417281E-06  0.260E-03    2.39       5.0  T
   4    -83.3683841 -0.452260E-06  0.350E-04    2.39      36.9  T
   5    -83.3683841 -0.364162E-08  0.201E-04    2.39      64.4  T
     SCC iter.                  ...        0 min,  0.014 sec
     gradient                   ...        0 min,  0.028 sec
 * total energy  :   -82.2939981 Eh     change       -0.2258447E-04 Eh
   gradient norm :     0.0009574 Eh/α   predicted    -0.1577019E-04 ( -30.17%)
   displ. norm   :     0.0872408 α      lambda       -0.2292097E-04
   maximum displ.:     0.0599326 α      in ANC's #6, #8, #4, ...

........................................................................
.............................. CYCLE   23 ..............................
........................................................................
   1    -83.3686369 -0.833686E+02  0.209E-02    2.39       0.0  T
   2    -83.3686370 -0.943025E-07  0.124E-02    2.39       1.0  T
   3    -83.3686367  0.234468E-06  0.219E-03    2.39       5.9  T
   4    -83.3686370 -0.266982E-06  0.502E-04    2.39      25.7  T
   5    -83.3686370 -0.592345E-08  0.271E-04    2.39      47.6  T
     SCC iter.                  ...        0 min,  0.014 sec
     gradient                   ...        0 min,  0.028 sec
 * total energy  :   -82.2940156 Eh     change       -0.1752503E-04 Eh
   gradient norm :     0.0015396 Eh/α   predicted    -0.1150469E-04 ( -34.35%)
   displ. norm   :     0.0411218 α      lambda       -0.8362485E-05
   maximum displ.:     0.0280187 α      in ANC's #6, #4, #8, ...

........................................................................
.............................. CYCLE   24 ..............................
........................................................................
   1    -83.3686847 -0.833687E+02  0.740E-03    2.39       0.0  T
   2    -83.3686847 -0.116810E-07  0.445E-03    2.39       2.9  T
   3    -83.3686846  0.441932E-07  0.933E-04    2.39      13.8  T
   4    -83.3686847 -0.495518E-07  0.205E-04    2.39      62.9  T
     SCC iter.                  ...        0 min,  0.011 sec
     gradient                   ...        0 min,  0.028 sec
 * total energy  :   -82.2940256 Eh     change       -0.9995116E-05 Eh
   gradient norm :     0.0018638 Eh/α   predicted    -0.4185458E-05 ( -58.12%)
   displ. norm   :     0.0851951 α      lambda       -0.1306781E-04
   maximum displ.:     0.0531748 α      in ANC's #6, #4, #8, ...

........................................................................
.............................. CYCLE   25 ..............................
........................................................................
   1    -83.3685831 -0.833686E+02  0.143E-02    2.39       0.0  T
   2    -83.3685831 -0.323176E-07  0.858E-03    2.39       1.5  T
   3    -83.3685826  0.484642E-06  0.297E-03    2.39       4.3  T
   4    -83.3685832 -0.521354E-06  0.432E-04    2.39      29.9  T
   5    -83.3685832 -0.400847E-08  0.297E-04    2.39      43.4  T
     SCC iter.                  ...        0 min,  0.014 sec
     gradient                   ...        0 min,  0.028 sec
 * total energy  :   -82.2940366 Eh     change       -0.1104931E-04 Eh
   gradient norm :     0.0040992 Eh/α   predicted    -0.6559421E-05 ( -40.63%)
   displ. norm   :     0.0477933 α      lambda       -0.7379851E-05
   maximum displ.:     0.0281153 α      in ANC's #6, #4, #3, ...

........................................................................
.............................. CYCLE   26 ..............................
........................................................................
   1    -83.3685170 -0.833685E+02  0.656E-03    2.39       0.0  T
   2    -83.3685170 -0.461998E-08  0.398E-03    2.39       3.2  T
   3    -83.3685168  0.234444E-06  0.196E-03    2.39       6.6  T
   4    -83.3685170 -0.253264E-06  0.182E-04    2.39      70.8  T
   5    -83.3685170 -0.236838E-09  0.119E-04    2.39     108.9  T
     SCC iter.                  ...        0 min,  0.014 sec
     gradient                   ...        0 min,  0.028 sec
 * total energy  :   -82.2940421 Eh     change       -0.5512942E-05 Eh
   gradient norm :     0.0006504 Eh/α   predicted    -0.3698628E-05 ( -32.91%)
   displ. norm   :     0.0895224 α      lambda       -0.6145205E-05
   maximum displ.:     0.0514820 α      in ANC's #4, #6, #3, ...

........................................................................
.............................. CYCLE   27 ..............................
........................................................................
   1    -83.3684926 -0.833685E+02  0.106E-02    2.40       0.0  T
   2    -83.3684926 -0.691230E-09  0.651E-03    2.40       2.0  T
   3    -83.3684915  0.107942E-05  0.415E-03    2.40       3.1  T
   4    -83.3684927 -0.117264E-05  0.346E-04    2.40      37.3  T
   5    -83.3684927 -0.438760E-09  0.254E-04    2.40      50.8  T
   6    -83.3684927 -0.188678E-08  0.117E-04    2.40     110.8  T
     SCC iter.                  ...        0 min,  0.016 sec
     gradient                   ...        0 min,  0.028 sec
 * total energy  :   -82.2940484 Eh     change       -0.6217974E-05 Eh
   gradient norm :     0.0031137 Eh/α   predicted    -0.3086102E-05 ( -50.37%)
   displ. norm   :     0.0420482 α      lambda       -0.4167531E-05
   maximum displ.:     0.0253442 α      in ANC's #4, #6, #3, ...

........................................................................
.............................. CYCLE   28 ..............................
........................................................................
   1    -83.3685154 -0.833685E+02  0.456E-03    2.40       0.0  T
   2    -83.3685154  0.469399E-08  0.279E-03    2.40       4.6  T
   3    -83.3685152  0.272937E-06  0.221E-03    2.40       5.8  T
   4    -83.3685155 -0.303412E-06  0.157E-04    2.40      82.1  T
   5    -83.3685155 -0.367834E-09  0.991E-05    2.40     130.3  T
     SCC iter.                  ...        0 min,  0.014 sec
     gradient                   ...        0 min,  0.028 sec
 * total energy  :   -82.2940520 Eh     change       -0.3658517E-05 Eh
   gradient norm :     0.0023039 Eh/α   predicted    -0.2096292E-05 ( -42.70%)
   displ. norm   :     0.0747380 α      lambda       -0.7758121E-05
   maximum displ.:     0.0447091 α      in ANC's #4, #3, #5, ...

........................................................................
.............................. CYCLE   29 ..............................
........................................................................
   1    -83.3685671 -0.833686E+02  0.870E-03    2.40       0.0  T
   2    -83.3685671  0.121477E-07  0.525E-03    2.40       2.5  T
   3    -83.3685662  0.876185E-06  0.401E-03    2.40       3.2  T
   4    -83.3685672 -0.966043E-06  0.276E-04    2.40      46.8  T
   5    -83.3685672 -0.157898E-08  0.164E-04    2.40      78.5  T
     SCC iter.                  ...        0 min,  0.014 sec
     gradient                   ...        0 min,  0.028 sec
 * total energy  :   -82.2940580 Eh     change       -0.5939951E-05 Eh
   gradient norm :     0.0007513 Eh/α   predicted    -0.3904506E-05 ( -34.27%)
   displ. norm   :     0.1147149 α      lambda       -0.5699745E-05
   maximum displ.:     0.0693525 α      in ANC's #4, #3, #2, ...

........................................................................
.............................. CYCLE   30 ..............................
........................................................................
   1    -83.3685347 -0.833685E+02  0.135E-02    2.39       0.0  T
   2    -83.3685347  0.198314E-07  0.815E-03    2.39       1.6  T
   3    -83.3685328  0.187313E-05  0.591E-03    2.39       2.2  T
   4    -83.3685349 -0.205094E-05  0.431E-04    2.39      30.0  T
   5    -83.3685349 -0.475758E-08  0.251E-04    2.39      51.5  T
   6    -83.3685349 -0.923237E-09  0.124E-04    2.39     103.8  T
     SCC iter.                  ...        0 min,  0.016 sec
     gradient                   ...        0 min,  0.028 sec
 * total energy  :   -82.2940633 Eh     change       -0.5299028E-05 Eh
   gradient norm :     0.0023786 Eh/α   predicted    -0.2868642E-05 ( -45.86%)
   displ. norm   :     0.0786907 α      lambda        0.3678511E-05
   maximum displ.:     0.0476726 α      in ANC's #4, #3, #2, ...

........................................................................
.............................. CYCLE   31 ..............................
........................................................................
   1    -83.3684546 -0.833685E+02  0.926E-03    2.39       0.0  T
   2    -83.3684546  0.948742E-08  0.557E-03    2.39       2.3  T
   3    -83.3684537  0.887420E-06  0.407E-03    2.39       3.2  T
   4    -83.3684547 -0.971657E-06  0.285E-04    2.39      45.3  T
   5    -83.3684547 -0.191012E-08  0.168E-04    2.39      76.8  T
     SCC iter.                  ...        0 min,  0.014 sec
     gradient                   ...        0 min,  0.028 sec
 * total energy  :   -82.2940632 Eh     change        0.5383357E-07 Eh
   gradient norm :     0.0041898 Eh/α   predicted     0.1847144E-05 (3331.21%)
   displ. norm   :     0.0156106 α      lambda       -0.3486376E-05
   maximum displ.:     0.0073879 α      in ANC's #6, #5, #10, ...

........................................................................
.............................. CYCLE   32 ..............................
........................................................................
   1    -83.3685532 -0.833686E+02  0.277E-03    2.39       0.0  T
   2    -83.3685532  0.850271E-08  0.173E-03    2.39       7.4  T
   3    -83.3685531  0.966569E-07  0.158E-03    2.39       8.2  T
   4    -83.3685533 -0.130042E-06  0.116E-04    2.39     111.1  T
   5    -83.3685533 -0.547317E-09  0.559E-05    2.39     231.0  T
     SCC iter.                  ...        0 min,  0.014 sec
     gradient                   ...        0 min,  0.028 sec
 * total energy  :   -82.2940659 Eh     change       -0.2679562E-05 Eh
   gradient norm :     0.0019174 Eh/α   predicted    -0.1743839E-05 ( -34.92%)
   displ. norm   :     0.0355200 α      lambda       -0.5090512E-05
   maximum displ.:     0.0165800 α      in ANC's #6, #4, #10, ...

........................................................................
.............................. CYCLE   33 ..............................
........................................................................
   1    -83.3687082 -0.833687E+02  0.766E-03    2.40       0.0  T
   2    -83.3687081  0.369689E-07  0.465E-03    2.40       2.8  T
   3    -83.3687073  0.796315E-06  0.421E-03    2.40       3.1  T
   4    -83.3687083 -0.964759E-06  0.302E-04    2.40      42.8  T
   5    -83.3687083 -0.385678E-08  0.139E-04    2.40      93.0  T
     SCC iter.                  ...        0 min,  0.014 sec
     gradient                   ...        0 min,  0.028 sec
 * total energy  :   -82.2940702 Eh     change       -0.4305259E-05 Eh
   gradient norm :     0.0024385 Eh/α   predicted    -0.2547284E-05 ( -40.83%)
   displ. norm   :     0.0254597 α      lambda       -0.2275110E-05
   maximum displ.:     0.0165186 α      in ANC's #4, #3, #2, ...

........................................................................
.............................. CYCLE   34 ..............................
........................................................................
   1    -83.3686648 -0.833687E+02  0.283E-03    2.40       0.0  T
   2    -83.3686648 -0.667740E-09  0.169E-03    2.40       7.7  T
   3    -83.3686647  0.406934E-07  0.798E-04    2.40      16.2  T
   4    -83.3686648 -0.435821E-07  0.805E-05    2.40     160.3  T
     SCC iter.                  ...        0 min,  0.011 sec
     gradient                   ...        0 min,  0.028 sec
 * total energy  :   -82.2940723 Eh     change       -0.2146901E-05 Eh
   gradient norm :     0.0021084 Eh/α   predicted    -0.1139446E-05 ( -46.93%)
   displ. norm   :     0.0619583 α      lambda       -0.5897330E-05
   maximum displ.:     0.0381918 α      in ANC's #4, #3, #2, ...

........................................................................
.............................. CYCLE   35 ..............................
........................................................................
   1    -83.3685575 -0.833686E+02  0.683E-03    2.40       0.0  T
   2    -83.3685575 -0.245832E-08  0.406E-03    2.40       3.2  T
   3    -83.3685573  0.204643E-06  0.183E-03    2.39       7.1  T
   4    -83.3685575 -0.218837E-06  0.145E-04    2.40      88.8  T
   5    -83.3685575 -0.264407E-09  0.861E-05    2.40     150.0  T
     SCC iter.                  ...        0 min,  0.014 sec
     gradient                   ...        0 min,  0.028 sec
 * total energy  :   -82.2940775 Eh     change       -0.5112158E-05 Eh
   gradient norm :     0.0008623 Eh/α   predicted    -0.2962770E-05 ( -42.04%)
   displ. norm   :     0.1678250 α      lambda       -0.8316990E-05
   maximum displ.:     0.1041643 α      in ANC's #4, #3, #2, ...

........................................................................
.............................. CYCLE   36 ..............................
........................................................................
   1    -83.3683417 -0.833683E+02  0.172E-02    2.39       0.0  T
   2    -83.3683417 -0.239526E-07  0.102E-02    2.39       1.3  T
   3    -83.3683410  0.693521E-06  0.331E-03    2.39       3.9  T
   4    -83.3683418 -0.742816E-06  0.389E-04    2.39      33.2  T
   5    -83.3683418 -0.252297E-08  0.233E-04    2.39      55.3  T
     SCC iter.                  ...        0 min,  0.014 sec
     gradient                   ...        0 min,  0.028 sec
 * total energy  :   -82.2940862 Eh     change       -0.8791338E-05 Eh
   gradient norm :     0.0021118 Eh/α   predicted    -0.4213480E-05 ( -52.07%)
   displ. norm   :     0.0746076 α      lambda       -0.4058796E-05
   maximum displ.:     0.0480201 α      in ANC's #4, #3, #2, ...

........................................................................
.............................. CYCLE   37 ..............................
........................................................................
   1    -83.3684301 -0.833684E+02  0.694E-03    2.40       0.0  T
   2    -83.3684301 -0.523454E-08  0.415E-03    2.40       3.1  T
   3    -83.3684301  0.755122E-08  0.445E-04    2.40      29.0  T
   4    -83.3684301 -0.100340E-07  0.130E-04    2.40      99.6  T
     SCC iter.                  ...        0 min,  0.011 sec
     gradient                   ...        0 min,  0.028 sec
 * total energy  :   -82.2940899 Eh     change       -0.3672456E-05 Eh
   gradient norm :     0.0019929 Eh/α   predicted    -0.2041623E-05 ( -44.41%)
   displ. norm   :     0.1420733 α      lambda       -0.5711090E-05
   maximum displ.:     0.0922201 α      in ANC's #4, #3, #2, ...

........................................................................
.............................. CYCLE   38 ..............................
........................................................................
   1    -83.3686657 -0.833687E+02  0.129E-02    2.40       0.0  T
   2    -83.3686657 -0.197867E-07  0.772E-03    2.40       1.7  T
   3    -83.3686655  0.203385E-06  0.191E-03    2.40       6.7  T
   4    -83.3686657 -0.218798E-06  0.331E-04    2.40      38.9  T
   5    -83.3686657 -0.298287E-08  0.172E-04    2.40      75.0  T
     SCC iter.                  ...        0 min,  0.014 sec
     gradient                   ...        0 min,  0.028 sec
 * total energy  :   -82.2940970 Eh     change       -0.7096960E-05 Eh
   gradient norm :     0.0006377 Eh/α   predicted    -0.2884870E-05 ( -59.35%)
   displ. norm   :     0.1565386 α      lambda       -0.5124106E-05
   maximum displ.:     0.1023683 α      in ANC's #4, #3, #2, ...

........................................................................
.............................. CYCLE   39 ..............................
........................................................................
   1    -83.3686190 -0.833686E+02  0.139E-02    2.40       0.0  T
   2    -83.3686190 -0.180692E-07  0.834E-03    2.40       1.5  T
   3    -83.3686187  0.300029E-06  0.233E-03    2.40       5.5  T
   4    -83.3686191 -0.322191E-06  0.342E-04    2.40      37.7  T
   5    -83.3686191 -0.248545E-08  0.196E-04    2.40      66.0  T
     SCC iter.                  ...        0 min,  0.013 sec
     gradient                   ...        0 min,  0.027 sec
 * total energy  :   -82.2941034 Eh     change       -0.6357603E-05 Eh
   gradient norm :     0.0003570 Eh/α   predicted    -0.2593095E-05 ( -59.21%)
   displ. norm   :     0.1611624 α      lambda       -0.4393003E-05
   maximum displ.:     0.1053082 α      in ANC's #4, #3, #2, ...

........................................................................
.............................. CYCLE   40 ..............................
........................................................................
   1    -83.3685935 -0.833686E+02  0.140E-02    2.40       0.0  T
   2    -83.3685935 -0.162255E-07  0.842E-03    2.40       1.5  T
   3    -83.3685932  0.302940E-06  0.239E-03    2.40       5.4  T
   4    -83.3685935 -0.326424E-06  0.347E-04    2.40      37.2  T
   5    -83.3685935 -0.207035E-08  0.213E-04    2.40      60.5  T
     SCC iter.                  ...        0 min,  0.013 sec
     gradient                   ...        0 min,  0.027 sec
 * total energy  :   -82.2941088 Eh     change       -0.5404357E-05 Eh
   gradient norm :     0.0007451 Eh/α   predicted    -0.2225890E-05 ( -58.81%)
   displ. norm   :     0.1698757 α      lambda       -0.3761454E-05
   maximum displ.:     0.1106677 α      in ANC's #4, #3, #2, ...

........................................................................
.............................. CYCLE   41 ..............................
........................................................................
   1    -83.3684773 -0.833685E+02  0.152E-02    2.40       0.0  T
   2    -83.3684773 -0.201171E-07  0.918E-03    2.40       1.4  T
   3    -83.3684771  0.160904E-06  0.178E-03    2.40       7.3  T
   4    -83.3684773 -0.178641E-06  0.353E-04    2.40      36.5  T
   5    -83.3684773 -0.930584E-09  0.229E-04    2.40      56.3  T
     SCC iter.                  ...        0 min,  0.013 sec
     gradient                   ...        0 min,  0.027 sec
 * total energy  :   -82.2941131 Eh     change       -0.4318759E-05 Eh
   gradient norm :     0.0005496 Eh/α   predicted    -0.1906346E-05 ( -55.86%)
   displ. norm   :     0.1610751 α      lambda       -0.2592184E-05
   maximum displ.:     0.1044199 α      in ANC's #4, #3, #2, ...

   *** GEOMETRY OPTIMIZATION CONVERGED AFTER 41 ITERATIONS ***

------------------------------------------------------------------------
 total energy gain   :        -0.1772164 Eh     -111.2050 kcal/mol
 total RMSD          :         0.2178571 a0        0.1153 Å
 total power (kW/mol):       -11.3483312 (step) -217.8722 (real)
------------------------------------------------------------------------

 ANCopt (total)                0 d,  0 h,  0 min,  2.136 sec
 optimizer setup                ...        0 min,  0.000 sec (  0.004%)
 model hessian                  ...        0 min,  0.065 sec (  3.024%)
 ANC generation                 ...        0 min,  0.005 sec (  0.253%)
 coordinate transformation      ...        0 min,  0.001 sec (  0.028%)
 single point calculation       ...        0 min,  2.050 sec ( 96.013%)
 optimization log               ...        0 min,  0.008 sec (  0.396%)
 hessian update                 ...        0 min,  0.001 sec (  0.048%)
 rational function              ...        0 min,  0.003 sec (  0.154%)

================
 final structure:
================
60
 xtb: 6.5.0 (homebrew)
C            3.63805127001772      -37.56202520084666       15.81859054034048
C            3.79362118379039      -38.08178840780810       17.24599298637529
O            3.30157060455959      -37.10782081356609       18.16552986483269
C            2.92808758793686      -39.33641395638627       17.42015248665446
C            5.27837917904432      -38.29583566387804       17.71461180565541
C            5.76072320516647      -39.74418620151127       17.68463105061238
C            6.27698349583536      -37.41809515440959       16.94920469635694
O            5.26295587376563      -37.82714269620681       19.06244891549700
B            4.14053269516676      -37.06656071439853       19.25119938507391
C            3.84524629225100      -36.27688011335813       20.54689356594401
C            4.83981614382229      -36.21910396011337       21.58050734718966
C            4.85423280107165      -35.46997361361932       22.69015819715074
H            5.69815796020031      -35.54095114734258       23.36034427172431
C            3.82982783099460      -34.39569002629696       23.02588733253082
H            4.08308956078544      -33.97645524051220       24.00204079142376
C            2.44652494817747      -34.99892577236236       23.13621371728651
B            1.71992231359908      -34.93514399462314       24.51541551178487
O            2.25320666074042      -34.34628562069371       25.62849301217569
C            1.40525137087949      -34.61515537237722       26.74362982035218
C            1.28742717169070      -33.36224301005205       27.60878826839824
C            2.08073820188026      -35.72570005882957       27.55842521382602
C            0.06548700554816      -35.08220252216601       26.06631357462289
C           -0.94740643645261      -33.94227477173984       25.89902792513824
C           -0.62138803825837      -36.26514189776970       26.74511558086521
O            0.48130438304255      -35.46203364005407       24.75473742613764
C            1.86702810860683      -35.59908573890420       22.09233443468601
C            2.42672605380292      -35.73987818617464       20.73299530368850
H            1.73314663640979      -36.25104570759832       20.06855872526544
C            3.07127568179857      -34.56843080804449       20.05550276057426
C            3.60911452991821      -33.41913558979144       20.69792245294569
C            3.88589716352912      -33.27232727812164       22.00286295771263
H            4.29023263812979      -32.33380378012079       22.35216033230091
H            2.57906002589816      -37.46939605451059       15.59041881688783
H            4.08957251267937      -38.25681831250714       15.11561815329297
H            4.09371602830283      -36.58377938069578       15.70402263177055
H            1.88984819675280      -39.06749499224416       17.23882226149657
H            3.00598376692631      -39.70772928518003       18.43900374481066
H            3.21880409397750      -40.11454615343161       16.72089227707652
H            5.69519429078168      -40.14132908022755       16.67524423702585
H            5.17933582211958      -40.36546601916143       18.35801814277935
H            6.79789293510492      -39.77597693041604       18.00888798795220
H            6.37801143580256      -37.74451623551988       15.91848929187193
H            7.24479165001654      -37.48923690953232       17.44026681535002
H            5.96286311438986      -36.37764901886831       16.97784605617886
H            5.67289565417819      -36.88864733878466       21.39788440531684
H            2.26044239817388      -33.13872577172994       28.03927970042854
H            0.57650998099285      -33.52732964409054       28.41391229540294
H            0.97592538415224      -32.50583432815053       27.01961239047881
H            3.07020744561653      -35.38409308086857       27.85379294883628
H            2.20207990620841      -36.61759377008905       26.94878833414396
H            1.50811323138325      -35.96311693103371       28.44993482063479
H           -1.34350527503651      -33.62381406607945       26.85861251610303
H           -1.76612244402137      -34.29768123604694       25.27761053328946
H           -0.48418381587959      -33.09942727242634       25.39229484785513
H           -0.86752847919257      -36.01748314852414       27.77420068021016
H            0.00815464301117      -37.14876697283658       26.72456571733997
H           -1.53906032257467      -36.49348993819621       26.20879395270707
H            0.88587000139108      -36.03186056782341       22.23862399784969
H            2.99375477643310      -34.55984362759260       18.98062676425353
H            3.78944896494833      -32.57754727373659       20.03710542353253

 Bond Distances (Angstroems)
 ---------------------------
C1-C2=1.5270         C1-H33=1.0872        C1-H34=1.0866        C1-H35=1.0852        C2-C1=1.5270         C2-O3=1.4270         
C2-C4=1.5341         C2-C5=1.5716         O3-C2=1.4270         O3-B9=1.3727         C4-C2=1.5341         C4-H36=1.0877        
C4-H37=1.0872        C4-H38=1.0858        C5-C2=1.5716         C5-C6=1.5269         C5-C7=1.5341         C5-O8=1.4271         
C6-C5=1.5269         C6-H39=1.0867        C6-H40=1.0851        C6-H41=1.0871        C7-C5=1.5341         C7-H42=1.0859        
C7-H43=1.0876        C7-H44=1.0872        O8-C5=1.4271         O8-B9=1.3689         B9-O3=1.3727         B9-O8=1.3689         
B9-C10=1.5458        C10-B9=1.5458        C10-C11=1.4356       C10-C27=1.5281       C10-C29=1.9389       C11-C10=1.4356       
C11-C12=1.3389       C11-H45=1.0843       C12-C11=1.3389       C12-H13=1.0800       C12-C14=1.5219       H13-C12=1.0800       
C14-C12=1.5219       C14-H15=1.0921       C14-C16=1.5131       C14-C31=1.5204       H15-C14=1.0921       C16-C14=1.5131       
C16-B17=1.5602       C16-C26=1.3363       B17-C16=1.5602       B17-O18=1.3675       B17-O25=1.3671       O18-B17=1.3675       
O18-C19=1.4265       C19-O18=1.4265       C19-C20=1.5271       C19-C21=1.5341       C19-C22=1.5722       C20-C19=1.5271       
C20-H46=1.0872       C20-H47=1.0867       C20-H48=1.0852       C21-C19=1.5341       C21-H49=1.0877       C21-H50=1.0871       
C21-H51=1.0858       C22-C19=1.5722       C22-C23=1.5341       C22-C24=1.5271       C22-O25=1.4274       C23-C22=1.5341       
C23-H52=1.0859       C23-H53=1.0876       C23-H54=1.0871       C24-C22=1.5271       C24-H55=1.0867       C24-H56=1.0851       
C24-H57=1.0872       O25-B17=1.3671       O25-C22=1.4274       C26-C16=1.3363       C26-C27=1.4768       C26-H58=1.0823       
C27-C10=1.5281       C27-C26=1.4768       C27-H28=1.0880       C27-C29=1.4989       H28-C27=1.0880       C29-C10=1.9389       
C29-C27=1.4989       C29-C30=1.4223       C29-H59=1.0777       C30-C29=1.4223       C30-C31=1.3420       C30-H60=1.0851       
C31-C14=1.5204       C31-C30=1.3420       C31-H32=1.0800       H32-C31=1.0800       H33-C1=1.0872        H34-C1=1.0866        
H35-C1=1.0852        H36-C4=1.0877        H37-C4=1.0872        H38-C4=1.0858        H39-C6=1.0867        H40-C6=1.0851        
H41-C6=1.0871        H42-C7=1.0859        H43-C7=1.0876        H44-C7=1.0872        H45-C11=1.0843       H46-C20=1.0872       
H47-C20=1.0867       H48-C20=1.0852       H49-C21=1.0877       H50-C21=1.0871       H51-C21=1.0858       H52-C23=1.0859       
H53-C23=1.0876       H54-C23=1.0871       H55-C24=1.0867       H56-C24=1.0851       H57-C24=1.0872       H58-C26=1.0823       
H59-C29=1.0777       H60-C30=1.0851       
 C  H  Rav=1.0859 sigma=0.0027  Rmin=1.0777  Rmax=1.0921    32
 C  B  Rav=1.5530 sigma=0.0072  Rmin=1.5458  Rmax=1.5602     2
 C  C  Rav=1.5119 sigma=0.1163  Rmin=1.3363  Rmax=1.9389    22
 O  B  Rav=1.3691 sigma=0.0022  Rmin=1.3671  Rmax=1.3727     4
 O  C  Rav=1.4270 sigma=0.0003  Rmin=1.4265  Rmax=1.4274     4

 selected bond angles (degree)
 --------------------
H33-C1-C2=108.93               H34-C1-C2=110.17               H34-C1-H33=108.87              H35-C1-C2=111.27               
H35-C1-H33=108.06              H35-C1-H34=109.49              O3-C2-C1=109.57                C4-C2-C1=109.09                
C4-C2-O3=106.89                C5-C2-C1=114.92                C5-C2-O3=103.10                C5-C2-C4=112.82                
B9-O3-C2=108.63                H36-C4-C2=108.51               H37-C4-C2=110.20               H37-C4-H36=108.00              
H38-C4-C2=111.22               H38-C4-H36=108.99              H38-C4-H37=109.85              C6-C5-C2=114.95                
C7-C5-C2=112.85                C7-C5-C6=109.11                O8-C5-C2=103.10                O8-C5-C6=109.48                
O8-C5-C7=106.88                H39-C6-C5=110.23               H40-C6-C5=111.20               H40-C6-H39=109.57              
H41-C6-C5=108.86               H41-C6-H39=108.90              H41-C6-H40=108.02              H42-C7-C5=111.23               
H43-C7-C5=108.45               H43-C7-H42=109.03              H44-C7-C5=110.26               H44-C7-H42=109.85              
H44-C7-H43=107.93              B9-O8-C5=108.76                O8-B9-O3=112.05                C10-B9-O3=124.16               
C10-B9-O8=123.78               C11-C10-B9=119.45              C27-C10-B9=117.32              C27-C10-C11=122.77             
C29-C10-B9=108.30              C29-C10-C11=115.06             C29-C10-C27= 49.51             

 selected dihedral angles (degree)
 ---------------------------------
O3-C2-C1-H33=294.34           O3-C2-C1-H34=174.99           O3-C2-C1-H35= 53.37           C4-C2-C1-H33= 51.04           
C4-C2-C1-H34=291.68           C4-C2-C1-H35=170.06           C5-C2-C1-H33=178.86           C5-C2-C1-H34= 59.51           
C5-C2-C1-H35=297.88           B9-O3-C2-C1=219.96            B9-O3-C2-C4=101.89            B9-O3-C2-C5=342.77            
H36-C4-C2-C1=299.48           H36-C4-C2-O3= 57.87           H36-C4-C2-C5=170.48           H37-C4-C2-C1=181.42           
H37-C4-C2-O3=299.80           H37-C4-C2-C5= 52.42           H38-C4-C2-C1= 59.35           H38-C4-C2-O3=177.73           
H38-C4-C2-C5=290.35           C6-C5-C2-C1=258.85            C6-C5-C2-O3=139.69            C6-C5-C2-C4= 24.77            
C7-C5-C2-C1= 24.85            C7-C5-C2-O3=265.69            C7-C5-C2-C4=150.76            O8-C5-C2-C1=139.78            
O8-C5-C2-O3= 20.62            O8-C5-C2-C4=265.70            H39-C6-C5-C2= 59.64           H39-C6-C5-C7=291.73           
H39-C6-C5-O8=175.09           H40-C6-C5-C2=297.91           H40-C6-C5-C7=170.01           H40-C6-C5-O8= 53.36           
H41-C6-C5-C2=179.02           H41-C6-C5-C7= 51.12           H41-C6-C5-O8=294.47           H42-C7-C5-C2=290.07           
H42-C7-C5-C6= 59.15           H42-C7-C5-O8=177.44           H43-C7-C5-C2=170.17           H43-C7-C5-C6=299.25           
H43-C7-C5-O8= 57.53           H44-C7-C5-C2= 52.20           H44-C7-C5-C6=181.27           H44-C7-C5-O8=299.56           
B9-O8-C5-C2=343.03            B9-O8-C5-C6=220.23            B9-O8-C5-C7=102.19            O8-B9-O3-C2=  7.55            
C10-B9-O3-C2=188.60           O3-B9-O8-C5=  7.07            C10-B9-O8-C5=186.02           C11-C10-B9-O3=184.79          
C11-C10-B9-O8=  5.97          C27-C10-B9-O3= 12.35          C27-C10-B9-O8=193.53          C29-C10-B9-O3=319.15          
C29-C10-B9-O8=140.32          
           -------------------------------------------------
          |                Final Singlepoint                |
           -------------------------------------------------

          ...................................................
          :                      SETUP                      :
          :.................................................:
          :  # basis functions                 144          :
          :  # atomic orbitals                 144          :
          :  # shells                           88          :
          :  # electrons                       150          :
          :  max. iterations                   250          :
          :  Hamiltonian                  GFN2-xTB          :
          :  restarted?                      false          :
          :  GBSA solvation                  false          :
          :  PC potential                    false          :
          :  electronic temp.          300.0000000     K    :
          :  accuracy                    1.0000000          :
          :  -> integral cutoff          0.2500000E+02      :
          :  -> integral neglect         0.1000000E-07      :
          :  -> SCF convergence          0.1000000E-05 Eh   :
          :  -> wf. convergence          0.1000000E-03 e    :
          :  Broyden damping             0.4000000          :
          ...................................................

 iter      E             dE          RMSdq      gap      omega  full diag
   1    -83.3684773 -0.833685E+02  0.910E-05    2.40       0.0  T
   2    -83.3684773  0.422062E-10  0.806E-05    2.40     160.2  T
   3    -83.3684773 -0.330616E-09  0.361E-05    2.40     357.5  T

   *** convergence criteria satisfied after 3 iterations ***

         #    Occupation            Energy/Eh            Energy/eV
      -------------------------------------------------------------
         1        2.0000           -0.6890350             -18.7496
       ...           ...                  ...                  ...
        69        2.0000           -0.4013482             -10.9212
        70        2.0000           -0.3980480             -10.8314
        71        2.0000           -0.3966428             -10.7932
        72        2.0000           -0.3938527             -10.7173
        73        2.0000           -0.3919259             -10.6648
        74        2.0000           -0.3635828              -9.8936
        75        2.0000           -0.3320404              -9.0353 (HOMO)
        76                         -0.2439894              -6.6393 (LUMO)
        77                         -0.2186930              -5.9509
        78                         -0.1808633              -4.9215
        79                         -0.1445530              -3.9335
        80                         -0.0949564              -2.5839
       ...                                ...                  ...
       144                          0.6733477              18.3227
      -------------------------------------------------------------
                  HL-Gap            0.0880510 Eh            2.3960 eV
             Fermi-level           -0.2880149 Eh           -7.8373 eV

 SCC (total)                   0 d,  0 h,  0 min,  0.041 sec
 SCC setup                      ...        0 min,  0.000 sec (  0.523%)
 Dispersion                     ...        0 min,  0.000 sec (  0.856%)
 classical contributions        ...        0 min,  0.000 sec (  0.403%)
 integral evaluation            ...        0 min,  0.006 sec ( 13.888%)
 iterations                     ...        0 min,  0.008 sec ( 19.203%)
 molecular gradient             ...        0 min,  0.027 sec ( 64.316%)
 printout                       ...        0 min,  0.000 sec (  0.801%)

         :::::::::::::::::::::::::::::::::::::::::::::::::::::
         ::                     SUMMARY                     ::
         :::::::::::::::::::::::::::::::::::::::::::::::::::::
         :: total energy             -82.294113097159 Eh    ::
         :: gradient norm              0.000549909205 Eh/a0 ::
         :: HOMO-LUMO gap              2.395988899117 eV    ::
         ::.................................................::
         :: SCC energy               -83.368477291826 Eh    ::
         :: -> isotropic ES            0.148344529039 Eh    ::
         :: -> anisotropic ES          0.011846040401 Eh    ::
         :: -> anisotropic XC          0.027294758804 Eh    ::
         :: -> dispersion             -0.062025442521 Eh    ::
         :: repulsion energy           1.073430428501 Eh    ::
         :: add. restraining           0.000247158933 Eh    ::
         :: total charge              -0.000000000000 e     ::
         :::::::::::::::::::::::::::::::::::::::::::::::::::::

           -------------------------------------------------
          |                Property Printout                |
           -------------------------------------------------

    * Orbital Energies and Occupations

         #    Occupation            Energy/Eh            Energy/eV
      -------------------------------------------------------------
         1        2.0000           -0.6890350             -18.7496
       ...           ...                  ...                  ...
        63        2.0000           -0.4349730             -11.8362
        64        2.0000           -0.4322905             -11.7632
        65        2.0000           -0.4227848             -11.5046
        66        2.0000           -0.4220187             -11.4837
        67        2.0000           -0.4186877             -11.3931
        68        2.0000           -0.4168239             -11.3424
        69        2.0000           -0.4013482             -10.9212
        70        2.0000           -0.3980480             -10.8314
        71        2.0000           -0.3966428             -10.7932
        72        2.0000           -0.3938527             -10.7173
        73        2.0000           -0.3919259             -10.6648
        74        2.0000           -0.3635828              -9.8936
        75        2.0000           -0.3320404              -9.0353 (HOMO)
        76                         -0.2439894              -6.6393 (LUMO)
        77                         -0.2186930              -5.9509
        78                         -0.1808633              -4.9215
        79                         -0.1445530              -3.9335
        80                         -0.0949564              -2.5839
        81                         -0.0756881              -2.0596
        82                          0.0094677               0.2576
        83                          0.0100621               0.2738
        84                          0.0275430               0.7495
        85                          0.0294493               0.8014
        86                          0.0562087               1.5295
       ...                                ...                  ...
       144                          0.6733477              18.3227
      -------------------------------------------------------------
                  HL-Gap            0.0880510 Eh            2.3960 eV
             Fermi-level           -0.2880149 Eh           -7.8373 eV

     #   Z          covCN         q      C6AA      α(0)
     1   6 C        3.755    -0.117    22.790     6.807
     2   6 C        3.858     0.130    18.436     6.106
     3   8 O        1.638    -0.381    20.501     6.112
     4   6 C        3.755    -0.116    22.776     6.805
     5   6 C        3.859     0.130    18.441     6.107
     6   6 C        3.755    -0.117    22.803     6.809
     7   6 C        3.755    -0.115    22.766     6.803
     8   8 O        1.638    -0.375    20.372     6.093
     9   5 B        2.657     0.433    15.553     6.641
    10   6 C        3.476    -0.071    23.991     7.331
    11   6 C        2.890    -0.039    28.956     8.822
    12   6 C        2.894    -0.041    29.022     8.833
    13   1 H        0.926     0.025     2.654     2.548
    14   6 C        3.861    -0.018    20.862     6.496
    15   1 H        0.924     0.044     2.398     2.422
    16   6 C        2.868    -0.079    29.974     8.974
    17   5 B        2.660     0.432    15.560     6.641
    18   8 O        1.638    -0.369    20.270     6.077
    19   6 C        3.859     0.129    18.458     6.110
    20   6 C        3.755    -0.117    22.797     6.808
    21   6 C        3.755    -0.116    22.775     6.805
    22   6 C        3.860     0.129    18.455     6.109
    23   6 C        3.755    -0.116    22.782     6.806
    24   6 C        3.755    -0.117    22.803     6.809
    25   8 O        1.638    -0.372    20.316     6.084
    26   6 C        2.896    -0.029    28.730     8.788
    27   6 C        3.860    -0.002    20.575     6.451
    28   1 H        0.925     0.046     2.377     2.411
    29   6 C        3.504    -0.017    22.463     7.023
    30   6 C        2.888    -0.035    28.871     8.809
    31   6 C        2.894    -0.036    28.901     8.814
    32   1 H        0.926     0.027     2.625     2.533
    33   1 H        0.925     0.054     2.273     2.358
    34   1 H        0.925     0.039     2.456     2.451
    35   1 H        0.925     0.051     2.308     2.376
    36   1 H        0.925     0.051     2.302     2.373
    37   1 H        0.925     0.043     2.403     2.424
    38   1 H        0.925     0.042     2.419     2.432
    39   1 H        0.925     0.040     2.454     2.450
    40   1 H        0.925     0.052     2.293     2.368
    41   1 H        0.925     0.054     2.266     2.354
    42   1 H        0.925     0.042     2.418     2.432
    43   1 H        0.925     0.052     2.293     2.368
    44   1 H        0.925     0.043     2.415     2.430
    45   1 H        0.925     0.036     2.509     2.477
    46   1 H        0.925     0.054     2.267     2.355
    47   1 H        0.925     0.039     2.456     2.451
    48   1 H        0.925     0.052     2.298     2.370
    49   1 H        0.925     0.052     2.293     2.368
    50   1 H        0.925     0.044     2.400     2.423
    51   1 H        0.925     0.042     2.420     2.433
    52   1 H        0.925     0.043     2.414     2.430
    53   1 H        0.925     0.052     2.293     2.368
    54   1 H        0.925     0.044     2.401     2.423
    55   1 H        0.925     0.040     2.451     2.448
    56   1 H        0.925     0.052     2.294     2.369
    57   1 H        0.925     0.054     2.267     2.354
    58   1 H        0.925     0.037     2.490     2.468
    59   1 H        0.926     0.041     2.441     2.443
    60   1 H        0.925     0.027     2.637     2.539

 Mol. C6AA /au·bohr⁶  :      32940.078673
 Mol. C8AA /au·bohr⁸  :     763137.318850
 Mol. α(0) /au        :        274.320501


Wiberg/Mayer (AO) data.
largest (>0.10) Wiberg bond orders for each atom

 ---------------------------------------------------------------------------
     #   Z sym  total        # sym  WBO       # sym  WBO       # sym  WBO
 ---------------------------------------------------------------------------
     1   6 C    3.994 --     2 C    0.997    34 H    0.985    33 H    0.983
                            35 H    0.982
     2   6 C    3.943 --     1 C    0.997     4 C    0.991     3 O    0.954
                             5 C    0.937
     3   8 O    2.214 --     9 B    1.110     2 C    0.954
     4   6 C    3.994 --     2 C    0.991    38 H    0.984    37 H    0.984
                            36 H    0.983
     5   6 C    3.942 --     6 C    0.997     7 C    0.991     8 O    0.953
                             2 C    0.937
     6   6 C    3.994 --     5 C    0.997    39 H    0.985    41 H    0.983
                            40 H    0.982
     7   6 C    3.994 --     5 C    0.991    42 H    0.984    44 H    0.984
                            43 H    0.983
     8   8 O    2.224 --     9 B    1.120     5 C    0.953
     9   5 B    3.389 --     8 O    1.120     3 O    1.110    10 C    1.028
    10   6 C    3.910 --    11 C    1.177     9 B    1.028    27 C    0.903
                            29 C    0.571    31 C    0.105
    11   6 C    3.991 --    12 C    1.774    10 C    1.177    45 H    0.958
    12   6 C    3.985 --    11 C    1.774    14 C    0.978    13 H    0.970
    13   1 H    0.999 --    12 C    0.970
    14   6 C    3.995 --    31 C    0.983    16 C    0.981    12 C    0.978
                            15 H    0.973
    15   1 H    0.998 --    14 C    0.973
    16   6 C    3.975 --    26 C    1.830    17 B    0.998    14 C    0.981
    17   5 B    3.375 --    18 O    1.130    25 O    1.130    16 C    0.998
    18   8 O    2.236 --    17 B    1.130    19 C    0.953
    19   6 C    3.943 --    20 C    0.997    21 C    0.991    18 O    0.953
                            22 C    0.936
    20   6 C    3.994 --    19 C    0.997    47 H    0.985    46 H    0.983
                            48 H    0.982
    21   6 C    3.994 --    19 C    0.991    51 H    0.984    50 H    0.984
                            49 H    0.983
    22   6 C    3.942 --    24 C    0.996    23 C    0.990    25 O    0.953
                            19 C    0.936
    23   6 C    3.995 --    22 C    0.990    52 H    0.984    54 H    0.984
                            53 H    0.983
    24   6 C    3.994 --    22 C    0.996    55 H    0.985    57 H    0.983
                            56 H    0.982
    25   8 O    2.234 --    17 B    1.130    22 C    0.953
    26   6 C    3.988 --    16 C    1.830    27 C    1.045    58 H    0.966
    27   6 C    3.982 --    26 C    1.045    28 H    0.967    29 C    0.960
                            10 C    0.903
    28   1 H    0.998 --    27 C    0.967
    29   6 C    3.933 --    30 C    1.212    59 H    0.974    27 C    0.960
                            10 C    0.571
    30   6 C    3.991 --    31 C    1.746    29 C    1.212    60 H    0.961
    31   6 C    3.976 --    30 C    1.746    14 C    0.983    32 H    0.971
                            10 C    0.105
    32   1 H    0.999 --    31 C    0.971
    33   1 H    0.997 --     1 C    0.983
    34   1 H    0.998 --     1 C    0.985
    35   1 H    0.997 --     1 C    0.982
    36   1 H    0.997 --     4 C    0.983
    37   1 H    0.998 --     4 C    0.984
    38   1 H    0.998 --     4 C    0.984
    39   1 H    0.998 --     6 C    0.985
    40   1 H    0.997 --     6 C    0.982
    41   1 H    0.997 --     6 C    0.983
    42   1 H    0.998 --     7 C    0.984
    43   1 H    0.997 --     7 C    0.983
    44   1 H    0.998 --     7 C    0.984
    45   1 H    0.999 --    11 C    0.958
    46   1 H    0.997 --    20 C    0.983
    47   1 H    0.998 --    20 C    0.985
    48   1 H    0.997 --    20 C    0.982
    49   1 H    0.997 --    21 C    0.983
    50   1 H    0.998 --    21 C    0.984
    51   1 H    0.998 --    21 C    0.984
    52   1 H    0.998 --    23 C    0.984
    53   1 H    0.997 --    23 C    0.983
    54   1 H    0.998 --    23 C    0.984
    55   1 H    0.998 --    24 C    0.985
    56   1 H    0.997 --    24 C    0.982
    57   1 H    0.997 --    24 C    0.983
    58   1 H    0.998 --    26 C    0.966
    59   1 H    0.998 --    29 C    0.974
    60   1 H    0.999 --    30 C    0.961
 ---------------------------------------------------------------------------

Topologies differ in total number of bonds
Writing topology from bond orders to xtbtopo.mol

molecular dipole:
                 x           y           z       tot (Debye)
 q only:       -0.322      -0.309      -0.037
   full:       -0.260      -0.370      -0.148       1.211
molecular quadrupole (traceless):
                xx          xy          yy          xz          yz          zz
 q only:      -32.931      26.850      37.575     -33.070      -5.685      -4.644
  q+dip:      -33.514      21.041      48.049     -30.380       3.961     -14.535
   full:      -33.486      20.238      49.341     -31.676       2.571     -15.854

           -------------------------------------------------
          |                Geometry Summary                 |
           -------------------------------------------------

      molecular mass/u    :      382.1099696
   center of mass at/Å    :        2.9386729     -35.9678032      21.8402418
  moments of inertia/u·Å² :        0.1116109E+04   0.7019407E+04   0.7219040E+04
rotational constants/cm⁻¹ :        0.1510392E-01   0.2401575E-02   0.2335163E-02

 * 57 selected distances

     #   Z          #   Z                                           value/Å
     1   6 C        2   6 C                                       1.5270344
     2   6 C        3   8 O                                       1.4269811
     2   6 C        4   6 C                                       1.5341335
     5   6 C        6   6 C                                       1.5268511
     5   6 C        7   6 C                                       1.5341080
     5   6 C        8   8 O                                       1.4270866
     3   8 O        9   5 B                                       1.3726757
     8   8 O        9   5 B                                       1.3689214
     9   5 B       10   6 C                                       1.5458374
    10   6 C       11   6 C                                       1.4355714
    11   6 C       12   6 C                                       1.3389285
    12   6 C       13   1 H                                       1.0799986
    14   6 C       15   1 H                                       1.0921424
    16   6 C       17   5 B                                       1.5601979 (max)
    17   5 B       18   8 O                                       1.3675117
    18   8 O       19   6 C                                       1.4264815
    19   6 C       20   6 C                                       1.5271449
    19   6 C       21   6 C                                       1.5341069
    22   6 C       23   6 C                                       1.5340708
    22   6 C       24   6 C                                       1.5270611
    17   5 B       25   8 O                                       1.3671366
    22   6 C       25   8 O                                       1.4273781
    16   6 C       26   6 C                                       1.3362982
    26   6 C       27   6 C                                       1.4767828
    27   6 C       28   1 H                                       1.0880353
    27   6 C       29   6 C                                       1.4989095
    29   6 C       30   6 C                                       1.4222706
    30   6 C       31   6 C                                       1.3420251
    31   6 C       32   1 H                                       1.0799641
     1   6 C       33   1 H                                       1.0872466
     1   6 C       34   1 H                                       1.0866367
     1   6 C       35   1 H                                       1.0852287
     4   6 C       36   1 H                                       1.0877221
     4   6 C       37   1 H                                       1.0871987
     4   6 C       38   1 H                                       1.0858042
     6   6 C       39   1 H                                       1.0866823
     6   6 C       40   1 H                                       1.0851038
     6   6 C       41   1 H                                       1.0871405
     7   6 C       42   1 H                                       1.0858784
     7   6 C       43   1 H                                       1.0875918
     7   6 C       44   1 H                                       1.0872076
    11   6 C       45   1 H                                       1.0842791
    20   6 C       46   1 H                                       1.0872174
    20   6 C       47   1 H                                       1.0866838
    20   6 C       48   1 H                                       1.0851717
    21   6 C       49   1 H                                       1.0876521
    21   6 C       50   1 H                                       1.0871318
    21   6 C       51   1 H                                       1.0858433
    23   6 C       52   1 H                                       1.0858703
    23   6 C       53   1 H                                       1.0875520
    23   6 C       54   1 H                                       1.0870813
    24   6 C       55   1 H                                       1.0867089
    24   6 C       56   1 H                                       1.0851450
    24   6 C       57   1 H                                       1.0871552
    26   6 C       58   1 H                                       1.0822967
    29   6 C       59   1 H                                       1.0777021 (min)
    30   6 C       60   1 H                                       1.0851133

 * 5 distinct bonds (by element types)

   Z      Z             #   av. dist./Å        max./Å        min./Å
   1 H    6 C          32     1.0858808     1.0921424     1.0777021
   5 B    6 C           2     1.5530177     1.5601979     1.5458374
   6 C    6 C          15     1.4730198     1.5341335     1.3362982
   5 B    8 O           4     1.3690613     1.3726757     1.3671366
   6 C    8 O           4     1.4269818     1.4273781     1.4264815


optimized geometry written to: xtbopt.xyz


           -------------------------------------------------
          | TOTAL ENERGY              -82.294113097159 Eh   |
          | GRADIENT NORM               0.000549909205 Eh/α |
          | HOMO-LUMO GAP               2.395988899117 eV   |
           -------------------------------------------------

------------------------------------------------------------------------
 * finished run on 2022/07/09 at 18:33:40.209     
------------------------------------------------------------------------
 total:
 * wall-time:     0 d,  0 h,  0 min,  2.262 sec
 *  cpu-time:     0 d,  0 h,  0 min,  2.260 sec
 * ratio c/w:     0.999 speedup
 SCF:
 * wall-time:     0 d,  0 h,  0 min,  0.072 sec
 *  cpu-time:     0 d,  0 h,  0 min,  0.072 sec
 * ratio c/w:     1.000 speedup
 ANC optimizer:
 * wall-time:     0 d,  0 h,  0 min,  2.178 sec
 *  cpu-time:     0 d,  0 h,  0 min,  2.176 sec
 * ratio c/w:     0.999 speedup

