      -----------------------------------------------------------      
     |                   =====================                   |     
     |                           x T B                           |     
     |                   =====================                   |     
     |                         S. Grimme                         |     
     |          Mulliken Center for Theoretical Chemistry        |     
     |                    University of Bonn                     |     
      -----------------------------------------------------------      

   * xtb version 6.5.0 (homebrew) compiled by 'nhattrup@GPGGRP-SHANNON.CHEME.CMU.EDU' on 

   xtb is free software: you can redistribute it and/or modify it under
   the terms of the GNU Lesser General Public License as published by
   the Free Software Foundation, either version 3 of the License, or
   (at your option) any later version.
   
   xtb is distributed in the hope that it will be useful,
   but WITHOUT ANY WARRANTY; without even the implied warranty of
   MERCHANTABILITY or FITNESS FOR A PARTICULAR PURPOSE.  See the
   GNU Lesser General Public License for more details.
   
   Cite this work as:
   * C. Bannwarth, E. Caldeweyher, S. Ehlert, A. Hansen, P. Pracht,
     J. Seibert, S. Spicher, S. Grimme, WIREs Comput. Mol. Sci., 2020, 11,
     e01493. DOI: 10.1002/wcms.1493
   
   for GFN2-xTB:
   * C. Bannwarth, S. Ehlert and S. Grimme., J. Chem. Theory Comput., 2019,
     15, 1652-1671. DOI: 10.1021/acs.jctc.8b01176
   for GFN1-xTB:
   * S. Grimme, C. Bannwarth, P. Shushkov, J. Chem. Theory Comput., 2017,
     13, 1989-2009. DOI: 10.1021/acs.jctc.7b00118
   for GFN0-xTB:
   * P. Pracht, E. Caldeweyher, S. Ehlert, S. Grimme, ChemRxiv, 2019, preprint.
     DOI: 10.26434/chemrxiv.8326202.v1
   for GFN-FF:
   * S. Spicher and S. Grimme, Angew. Chem. Int. Ed., 2020, 59, 15665-15673.
     DOI: 10.1002/anie.202004239
   
   for ALPB and GBSA implicit solvation:
   * S. Ehlert, M. Stahn, S. Spicher, S. Grimme, J. Chem. Theory Comput.,
     2021, 17, 4250-4261. DOI: 10.1021/acs.jctc.1c00471
   
   for DFT-D4:
   * E. Caldeweyher, C. Bannwarth and S. Grimme, J. Chem. Phys., 2017,
     147, 034112. DOI: 10.1063/1.4993215
   * E. Caldeweyher, S. Ehlert, A. Hansen, H. Neugebauer, S. Spicher,
     C. Bannwarth and S. Grimme, J. Chem. Phys., 2019, 150, 154122.
     DOI: 10.1063/1.5090222
   * E. Caldeweyher, J.-M. Mewes, S. Ehlert and S. Grimme, Phys. Chem. Chem. Phys.
     2020, 22, 8499-8512. DOI: 10.1039/D0CP00502A
   
   for sTDA-xTB:
   * S. Grimme and C. Bannwarth, J. Chem. Phys., 2016, 145, 054103.
     DOI: 10.1063/1.4959605
   
   in the mass-spec context:
   * V. Asgeirsson, C. Bauer and S. Grimme, Chem. Sci., 2017, 8, 4879.
     DOI: 10.1039/c7sc00601b
   * J. Koopman and S. Grimme, ACS Omega 2019, 4, 12, 15120-15133.
     DOI: 10.1021/acsomega.9b02011
   
   for metadynamics refer to:
   * S. Grimme, J. Chem. Theory Comput., 2019, 155, 2847-2862
     DOI: 10.1021/acs.jctc.9b00143
   
   for SPH calculations refer to:
   * S. Spicher and S. Grimme, J. Chem. Theory Comput., 2021, 17, 1701-1714
     DOI: 10.1021/acs.jctc.0c01306
   
   with help from (in alphabetical order)
   P. Atkinson, C. Bannwarth, F. Bohle, G. Brandenburg, E. Caldeweyher
   M. Checinski, S. Dohm, S. Ehlert, S. Ehrlich, I. Gerasimov, C. Hölzer
   A. Katbashev, J. Koopman, C. Lavigne, S. Lehtola, F. März, M. Müller,
   F. Musil, H. Neugebauer, J. Pisarek, C. Plett, P. Pracht, F. Pultar,
   J. Seibert, P. Shushkov, S. Spicher, M. Stahn, M. Steiner, T. Strunk,
   J. Stückrath, T. Rose, and J. Unsleber
   
 * started run on 2022/07/09 at 18:33:29.922     

           -------------------------------------------------
          |                Calculation Setup                |
           -------------------------------------------------

          program call               : /opt/homebrew/bin/xtb bvl_bpin2_scan_5-6_xtb.xyz --chrg 0 --uhf 0 --opt --input xcontrol_bvl_bpin2_scan_5-6_xtb
          coordinate file            : bvl_bpin2_scan_5-6_xtb.xyz
          omp threads                :                     1

   ID    Z sym.   atoms
    1    6 C      1, 2, 4-7, 10-12, 14, 16, 19-24, 26, 27, 29-31
    2    8 O      3, 8, 18, 25
    3    5 B      9, 17
    4    1 H      13, 15, 28, 32-60
constraining bond 12 31 to    2.0556000 Å, actual value:    1.9438670 Å
constraining bond 10 29 to    1.8333000 Å, actual value:    1.9437011 Å

           -------------------------------------------------
          |                 G F N 2 - x T B                 |
           -------------------------------------------------

        Reference                      10.1021/acs.jctc.8b01176
      * Hamiltonian:
        H0-scaling (s, p, d)           1.850000    2.230000    2.230000
        zeta-weighting                 0.500000
      * Dispersion:
        s8                             2.700000
        a1                             0.520000
        a2                             5.000000
        s9                             5.000000
      * Repulsion:
        kExp                           1.500000    1.000000
        rExp                           1.000000
      * Coulomb:
        alpha                          2.000000
        third order                    shell-resolved
        anisotropic                    true
        a3                             3.000000
        a5                             4.000000
        cn-shift                       1.200000
        cn-exp                         4.000000
        max-rad                        5.000000


          ...................................................
          :                      SETUP                      :
          :.................................................:
          :  # basis functions                 144          :
          :  # atomic orbitals                 144          :
          :  # shells                           88          :
          :  # electrons                       150          :
          :  max. iterations                   250          :
          :  Hamiltonian                  GFN2-xTB          :
          :  restarted?                      false          :
          :  GBSA solvation                  false          :
          :  PC potential                    false          :
          :  electronic temp.          300.0000000     K    :
          :  accuracy                    1.0000000          :
          :  -> integral cutoff          0.2500000E+02      :
          :  -> integral neglect         0.1000000E-07      :
          :  -> SCF convergence          0.1000000E-05 Eh   :
          :  -> wf. convergence          0.1000000E-03 e    :
          :  Broyden damping             0.4000000          :
          ...................................................

 iter      E             dE          RMSdq      gap      omega  full diag
   1    -82.9447577 -0.829448E+02  0.468E+00    3.42       0.0  T
   2    -83.3288498 -0.384092E+00  0.288E+00    2.95       1.0  T
   3    -83.3424040 -0.135543E-01  0.138E+00    3.28       1.0  T
   4    -83.3654178 -0.230138E-01  0.418E-01    3.12       1.0  T
   5    -83.3768015 -0.113837E-01  0.155E-01    3.18       1.0  T
   6    -83.3768515 -0.499989E-04  0.100E-01    3.19       1.0  T
   7    -83.3771459 -0.294414E-03  0.276E-02    3.18       1.0  T
   8    -83.3771677 -0.218027E-04  0.117E-02    3.18       1.1  T
   9    -83.3771723 -0.455142E-05  0.540E-03    3.18       2.4  T
  10    -83.3771730 -0.717341E-06  0.250E-03    3.18       5.2  T
  11    -83.3771731 -0.103470E-06  0.691E-04    3.18      18.7  T
  12    -83.3771731 -0.220029E-07  0.294E-04    3.18      43.9  T

   *** convergence criteria satisfied after 12 iterations ***

         #    Occupation            Energy/Eh            Energy/eV
      -------------------------------------------------------------
         1        2.0000           -0.6889856             -18.7483
       ...           ...                  ...                  ...
        69        2.0000           -0.4059660             -11.0469
        70        2.0000           -0.3981124             -10.8332
        71        2.0000           -0.3970802             -10.8051
        72        2.0000           -0.3941351             -10.7250
        73        2.0000           -0.3842588             -10.4562
        74        2.0000           -0.3512123              -9.5570
        75        2.0000           -0.3444270              -9.3723 (HOMO)
        76                         -0.2275368              -6.1916 (LUMO)
        77                         -0.2074470              -5.6449
        78                         -0.1879856              -5.1153
        79                         -0.1237310              -3.3669
        80                         -0.0972091              -2.6452
       ...                                ...                  ...
       144                          0.6924629              18.8429
      -------------------------------------------------------------
                  HL-Gap            0.1168901 Eh            3.1807 eV
             Fermi-level           -0.2859819 Eh           -7.7820 eV

 SCC (total)                   0 d,  0 h,  0 min,  0.067 sec
 SCC setup                      ...        0 min,  0.000 sec (  0.351%)
 Dispersion                     ...        0 min,  0.000 sec (  0.628%)
 classical contributions        ...        0 min,  0.000 sec (  0.261%)
 integral evaluation            ...        0 min,  0.006 sec (  8.993%)
 iterations                     ...        0 min,  0.032 sec ( 48.234%)
 molecular gradient             ...        0 min,  0.028 sec ( 40.988%)
 printout                       ...        0 min,  0.000 sec (  0.538%)

         :::::::::::::::::::::::::::::::::::::::::::::::::::::
         ::                     SUMMARY                     ::
         :::::::::::::::::::::::::::::::::::::::::::::::::::::
         :: total energy             -82.121914137172 Eh    ::
         :: gradient norm              1.680206538445 Eh/a0 ::
         :: HOMO-LUMO gap              3.180742538354 eV    ::
         ::.................................................::
         :: SCC energy               -83.377173128056 Eh    ::
         :: -> isotropic ES            0.147930729836 Eh    ::
         :: -> anisotropic ES          0.011608608228 Eh    ::
         :: -> anisotropic XC          0.026626077118 Eh    ::
         :: -> dispersion             -0.061358819944 Eh    ::
         :: repulsion energy           1.078389178477 Eh    ::
         :: add. restraining           0.176215427373 Eh    ::
         :: total charge              -0.000000000000 e     ::
         :::::::::::::::::::::::::::::::::::::::::::::::::::::

      ----------------------------------------------------------- 
     |                   =====================                   |
     |                        A N C O P T                        |
     |                   =====================                   |
     |               Approximate Normal Coordinate               |
     |                Rational Function Optimizer                |
      ----------------------------------------------------------- 

          ...................................................
          :                      SETUP                      :
          :.................................................:
          :   optimization level            normal          :
          :   max. optcycles                   200          :
          :   ANC micro-cycles                  20          :
          :   degrees of freedom               174          :
          :.................................................:
          :   RF solver                   davidson          :
          :   write xtbopt.log                true          :
          :   linear?                        false          :
          :   energy convergence         0.5000000E-05 Eh   :
          :   grad. convergence          0.1000000E-02 Eh/α :
          :   maximium RF displ.         1.0000000          :
          :   Hlow (freq-cutoff)         0.1000000E-01      :
          :   Hmax (freq-cutoff)         5.0000000          :
          :   S6 in model hess.         20.0000000          :
          ...................................................

generating ANC from model Hessian ...
Using Lindh-Hessian (1995)
 Shifting diagonal of input Hessian by   0.20556182856090224     
 Lowest  eigenvalues of input Hessian
    0.010000    0.138967    0.000000    0.000000    0.000000    0.000000
    0.000000    0.000000    0.205675    0.205703    0.205856    0.207214
    0.207446    0.208391    0.208847    0.208919    0.210158    0.210715
 Highest eigenvalues
    1.923055    2.062722    2.117878    2.201795    8.895422    8.957773


........................................................................
.............................. CYCLE    1 ..............................
........................................................................
   1    -83.3771731 -0.833772E+02  0.141E-04    3.18       0.0  T
   2    -83.3771731 -0.115703E-08  0.850E-05    3.18     151.9  T
   3    -83.3771731 -0.379416E-09  0.330E-05    3.18     391.6  T
     SCC iter.                  ...        0 min,  0.008 sec
     gradient                   ...        0 min,  0.028 sec
 * total energy  :   -82.1219141 Eh     change       -0.9274999E-09 Eh
   gradient norm :     1.6802067 Eh/α   predicted     0.0000000E+00 (-100.00%)
   displ. norm   :     0.3108827 α      lambda       -0.5156944E+00
   maximum displ.:     0.2959422 α      in ANC's #174, #173, #127, ...

........................................................................
.............................. CYCLE    2 ..............................
........................................................................
   1    -83.3758362 -0.833758E+02  0.376E-01    3.26       0.0  T
   2    -83.3761617 -0.325421E-03  0.318E-01    3.25       1.0  T
   3    -83.3775945 -0.143287E-02  0.164E-01    3.24       1.0  T
   4    -83.3779489 -0.354398E-03  0.436E-02    3.24       1.0  T
   5    -83.3780502 -0.101226E-03  0.997E-03    3.24       1.3  T
   6    -83.3780536 -0.343840E-05  0.472E-03    3.24       2.7  T
   7    -83.3780539 -0.338970E-06  0.150E-03    3.24       8.6  T
   8    -83.3780540 -0.261244E-07  0.636E-04    3.24      20.3  T
   9    -83.3780540 -0.112719E-07  0.266E-04    3.24      48.5  T
     SCC iter.                  ...        0 min,  0.024 sec
     gradient                   ...        0 min,  0.028 sec
 * total energy  :   -82.2587711 Eh     change       -0.1368569E+00 Eh
   gradient norm :     0.8081777 Eh/α   predicted    -0.2833115E+00 ( 107.01%)
   displ. norm   :     0.1043001 α      lambda       -0.8025756E-01
   maximum displ.:     0.0947295 α      in ANC's #174, #173, #170, ...

........................................................................
.............................. CYCLE    3 ..............................
........................................................................
   1    -83.3779496 -0.833779E+02  0.118E-01    3.20       0.0  T
   2    -83.3780235 -0.738926E-04  0.105E-01    3.21       1.0  T
   3    -83.3782778 -0.254339E-03  0.541E-02    3.21       1.0  T
   4    -83.3782780 -0.163690E-06  0.182E-02    3.21       1.0  T
   5    -83.3782948 -0.168333E-04  0.364E-03    3.21       3.5  T
   6    -83.3782954 -0.573961E-06  0.148E-03    3.21       8.7  T
   7    -83.3782954 -0.230669E-07  0.527E-04    3.21      24.5  T
   8    -83.3782954 -0.438109E-08  0.230E-04    3.21      56.1  T
     SCC iter.                  ...        0 min,  0.022 sec
     gradient                   ...        0 min,  0.028 sec
 * total energy  :   -82.2998048 Eh     change       -0.4103370E-01 Eh
   gradient norm :     0.0328997 Eh/α   predicted    -0.4057812E-01 (  -1.11%)
   displ. norm   :     0.0417152 α      lambda       -0.1004820E-02
   maximum displ.:     0.0224419 α      in ANC's #37, #127, #119, ...

........................................................................
.............................. CYCLE    4 ..............................
........................................................................
   1    -83.3785946 -0.833786E+02  0.294E-02    3.21       0.0  T
   2    -83.3785981 -0.349388E-05  0.188E-02    3.21       1.0  T
   3    -83.3785961  0.199335E-05  0.133E-02    3.21       1.0  T
   4    -83.3786035 -0.742753E-05  0.327E-03    3.21       4.0  T
   5    -83.3786040 -0.513230E-06  0.826E-04    3.21      15.6  T
   6    -83.3786041 -0.304129E-07  0.308E-04    3.21      41.9  T
     SCC iter.                  ...        0 min,  0.016 sec
     gradient                   ...        0 min,  0.028 sec
 * total energy  :   -82.3006235 Eh     change       -0.8187629E-03 Eh
   gradient norm :     0.0196084 Eh/α   predicted    -0.5105327E-03 ( -37.65%)
   displ. norm   :     0.1641987 α      lambda       -0.1465358E-02
   maximum displ.:     0.1310274 α      in ANC's #1, #37, #109, ...

........................................................................
.............................. CYCLE    5 ..............................
........................................................................
   1    -83.3775241 -0.833775E+02  0.977E-02    3.22       0.0  T
   2    -83.3775363 -0.122406E-04  0.592E-02    3.22       1.0  T
   3    -83.3774691  0.672044E-04  0.384E-02    3.22       1.0  T
   4    -83.3775533 -0.842354E-04  0.681E-03    3.22       1.9  T
   5    -83.3775557 -0.237055E-05  0.169E-03    3.22       7.6  T
   6    -83.3775558 -0.839139E-07  0.810E-04    3.22      15.9  T
   7    -83.3775558 -0.857439E-08  0.269E-04    3.22      48.1  T
     SCC iter.                  ...        0 min,  0.021 sec
     gradient                   ...        0 min,  0.028 sec
 * total energy  :   -82.3004177 Eh     change        0.2058150E-03 Eh
   gradient norm :     0.0260319 Eh/α   predicted    -0.7527354E-03 (-465.73%)
   displ. norm   :     0.3087426 α      lambda       -0.3851421E-02
   maximum displ.:     0.2616624 α      in ANC's #1, #37, #109, ...

........................................................................
.............................. CYCLE    6 ..............................
........................................................................
   1    -83.3768801 -0.833769E+02  0.183E-01    3.22       0.0  T
   2    -83.3769162 -0.360829E-04  0.109E-01    3.22       1.0  T
   3    -83.3767240  0.192151E-03  0.681E-02    3.22       1.0  T
   4    -83.3769643 -0.240306E-03  0.104E-02    3.22       1.2  T
   5    -83.3769700 -0.568028E-05  0.291E-03    3.22       4.4  T
   6    -83.3769702 -0.250937E-06  0.149E-03    3.22       8.7  T
   7    -83.3769703 -0.343196E-07  0.492E-04    3.22      26.2  T
   8    -83.3769703 -0.669603E-08  0.176E-04    3.22      73.2  T
     SCC iter.                  ...        0 min,  0.022 sec
     gradient                   ...        0 min,  0.028 sec
 * total energy  :   -82.2989311 Eh     change        0.1486656E-02 Eh
   gradient norm :     0.0535749 Eh/α   predicted    -0.2110698E-02 (-241.98%)
   displ. norm   :     0.1804318 α      lambda       -0.5093979E-02
   maximum displ.:     0.1112031 α      in ANC's #1, #37, #109, ...

........................................................................
.............................. CYCLE    7 ..............................
........................................................................
   1    -83.3793992 -0.833794E+02  0.115E-01    3.23       0.0  T
   2    -83.3794280 -0.288281E-04  0.693E-02    3.22       1.0  T
   3    -83.3793405  0.875089E-04  0.490E-02    3.22       1.0  T
   4    -83.3794681 -0.127581E-03  0.940E-03    3.22       1.4  T
   5    -83.3794725 -0.442684E-05  0.252E-03    3.22       5.1  T
   6    -83.3794728 -0.242341E-06  0.110E-03    3.22      11.7  T
   7    -83.3794728 -0.188136E-07  0.417E-04    3.22      30.9  T
   8    -83.3794728 -0.261711E-08  0.133E-04    3.22      97.2  T
     SCC iter.                  ...        0 min,  0.022 sec
     gradient                   ...        0 min,  0.032 sec
 * total energy  :   -82.3014807 Eh     change       -0.2549635E-02 Eh
   gradient norm :     0.0128138 Eh/α   predicted    -0.2609305E-02 (   2.34%)
   displ. norm   :     0.0370065 α      lambda       -0.3230611E-03
   maximum displ.:     0.0236011 α      in ANC's #1, #37, #33, ...

........................................................................
.............................. CYCLE    8 ..............................
........................................................................
   1    -83.3796613 -0.833797E+02  0.198E-02    3.22       0.0  T
   2    -83.3796614 -0.163759E-06  0.117E-02    3.22       1.1  T
   3    -83.3796606  0.821715E-06  0.441E-03    3.22       2.9  T
   4    -83.3796616 -0.949381E-06  0.554E-04    3.22      23.3  T
   5    -83.3796616 -0.128211E-07  0.244E-04    3.22      52.8  T
     SCC iter.                  ...        0 min,  0.014 sec
     gradient                   ...        0 min,  0.028 sec
 * total energy  :   -82.3016004 Eh     change       -0.1196690E-03 Eh
   gradient norm :     0.0070316 Eh/α   predicted    -0.8459439E-04 ( -29.31%)
   displ. norm   :     0.0529518 α      lambda       -0.5128403E-03
   maximum displ.:     0.0403464 α      in ANC's #37, #33, #29, ...

........................................................................
.............................. CYCLE    9 ..............................
........................................................................
   1    -83.3799572 -0.833800E+02  0.256E-02    3.23       0.0  T
   2    -83.3799573 -0.178240E-06  0.153E-02    3.23       1.0  T
   3    -83.3799563  0.107226E-05  0.398E-03    3.23       3.2  T
   4    -83.3799574 -0.119228E-05  0.656E-04    3.23      19.7  T
   5    -83.3799575 -0.169072E-07  0.312E-04    3.23      41.4  T
   6    -83.3799575 -0.148968E-08  0.168E-04    3.23      76.7  T
     SCC iter.                  ...        0 min,  0.017 sec
     gradient                   ...        0 min,  0.028 sec
 * total energy  :   -82.3017330 Eh     change       -0.1326937E-03 Eh
   gradient norm :     0.0080770 Eh/α   predicted    -0.8756538E-04 ( -34.01%)
   displ. norm   :     0.0812733 α      lambda       -0.7864860E-03
   maximum displ.:     0.0619847 α      in ANC's #37, #33, #29, ...

........................................................................
.............................. CYCLE   10 ..............................
........................................................................
   1    -83.3803939 -0.833804E+02  0.388E-02    3.23       0.0  T
   2    -83.3803944 -0.439806E-06  0.232E-02    3.23       1.0  T
   3    -83.3803916  0.281132E-05  0.649E-03    3.23       2.0  T
   4    -83.3803947 -0.312495E-05  0.993E-04    3.23      13.0  T
   5    -83.3803947 -0.350807E-07  0.493E-04    3.23      26.2  T
   6    -83.3803947 -0.454411E-08  0.263E-04    3.23      49.0  T
     SCC iter.                  ...        0 min,  0.017 sec
     gradient                   ...        0 min,  0.028 sec
 * total energy  :   -82.3018604 Eh     change       -0.1273736E-03 Eh
   gradient norm :     0.0083937 Eh/α   predicted    -0.1011742E-03 ( -20.57%)
   displ. norm   :     0.0348938 α      lambda       -0.2569140E-03
   maximum displ.:     0.0228991 α      in ANC's #37, #1, #29, ...

........................................................................
.............................. CYCLE   11 ..............................
........................................................................
   1    -83.3808228 -0.833808E+02  0.167E-02    3.24       0.0  T
   2    -83.3808229 -0.114224E-06  0.997E-03    3.24       1.3  T
   3    -83.3808221  0.855581E-06  0.386E-03    3.24       3.3  T
   4    -83.3808230 -0.966513E-06  0.444E-04    3.24      29.0  T
   5    -83.3808230 -0.665094E-08  0.248E-04    3.24      52.1  T
     SCC iter.                  ...        0 min,  0.014 sec
     gradient                   ...        0 min,  0.028 sec
 * total energy  :   -82.3018952 Eh     change       -0.3482626E-04 Eh
   gradient norm :     0.0044831 Eh/α   predicted    -0.2637584E-04 ( -24.26%)
   displ. norm   :     0.0166289 α      lambda       -0.1237362E-03
   maximum displ.:     0.0060752 α      in ANC's #37, #17, #29, ...

........................................................................
.............................. CYCLE   12 ..............................
........................................................................
   1    -83.3812470 -0.833812E+02  0.757E-03    3.23       0.0  T
   2    -83.3812470 -0.287107E-07  0.451E-03    3.23       2.9  T
   3    -83.3812469  0.116284E-06  0.153E-03    3.23       8.4  T
   4    -83.3812470 -0.128365E-06  0.264E-04    3.23      49.0  T
   5    -83.3812470 -0.275405E-08  0.119E-04    3.23     108.1  T
     SCC iter.                  ...        0 min,  0.014 sec
     gradient                   ...        0 min,  0.028 sec
 * total energy  :   -82.3019100 Eh     change       -0.1474424E-04 Eh
   gradient norm :     0.0024418 Eh/α   predicted    -0.1055211E-04 ( -28.43%)
   displ. norm   :     0.0192801 α      lambda       -0.1203416E-03
   maximum displ.:     0.0078802 α      in ANC's #17, #29, #28, ...

........................................................................
.............................. CYCLE   13 ..............................
........................................................................
   1    -83.3817691 -0.833818E+02  0.794E-03    3.23       0.0  T
   2    -83.3817691 -0.458998E-07  0.475E-03    3.23       2.7  T
   3    -83.3817690  0.147876E-06  0.164E-03    3.23       7.9  T
   4    -83.3817691 -0.160240E-06  0.373E-04    3.23      34.6  T
   5    -83.3817691 -0.657070E-08  0.118E-04    3.23     109.1  T
     SCC iter.                  ...        0 min,  0.014 sec
     gradient                   ...        0 min,  0.028 sec
 * total energy  :   -82.3019229 Eh     change       -0.1286868E-04 Eh
   gradient norm :     0.0033635 Eh/α   predicted    -0.8771224E-05 ( -31.84%)
   displ. norm   :     0.0204173 α      lambda       -0.1276733E-03
   maximum displ.:     0.0086628 α      in ANC's #17, #29, #11, ...

........................................................................
.............................. CYCLE   14 ..............................
........................................................................
   1    -83.3821634 -0.833822E+02  0.762E-03    3.23       0.0  T
   2    -83.3821634 -0.520573E-07  0.457E-03    3.23       2.8  T
   3    -83.3821631  0.266250E-06  0.229E-03    3.23       5.6  T
   4    -83.3821634 -0.301869E-06  0.413E-04    3.23      31.3  T
   5    -83.3821634 -0.812099E-08  0.148E-04    3.23      87.2  T
     SCC iter.                  ...        0 min,  0.014 sec
     gradient                   ...        0 min,  0.028 sec
 * total energy  :   -82.3019346 Eh     change       -0.1177929E-04 Eh
   gradient norm :     0.0038925 Eh/α   predicted    -0.8130674E-05 ( -30.97%)
   displ. norm   :     0.0233972 α      lambda       -0.1298147E-03
   maximum displ.:     0.0101359 α      in ANC's #17, #29, #11, ...

........................................................................
.............................. CYCLE   15 ..............................
........................................................................
   1    -83.3823433 -0.833823E+02  0.803E-03    3.23       0.0  T
   2    -83.3823433 -0.458207E-07  0.476E-03    3.23       2.7  T
   3    -83.3823431  0.197969E-06  0.219E-03    3.23       5.9  T
   4    -83.3823434 -0.230404E-06  0.307E-04    3.23      42.1  T
   5    -83.3823434 -0.372467E-08  0.164E-04    3.23      78.5  T
     SCC iter.                  ...        0 min,  0.014 sec
     gradient                   ...        0 min,  0.028 sec
 * total energy  :   -82.3019447 Eh     change       -0.1008112E-04 Eh
   gradient norm :     0.0017131 Eh/α   predicted    -0.7333074E-05 ( -27.26%)
   displ. norm   :     0.0208577 α      lambda       -0.7711183E-04
   maximum displ.:     0.0089300 α      in ANC's #17, #29, #37, ...

........................................................................
.............................. CYCLE   16 ..............................
........................................................................
   1    -83.3821277 -0.833821E+02  0.725E-03    3.23       0.0  T
   2    -83.3821278 -0.365402E-07  0.430E-03    3.23       3.0  T
   3    -83.3821276  0.172910E-06  0.212E-03    3.23       6.1  T
   4    -83.3821278 -0.209471E-06  0.173E-04    3.23      74.6  T
   5    -83.3821278 -0.556128E-09  0.117E-04    3.23     110.6  T
     SCC iter.                  ...        0 min,  0.014 sec
     gradient                   ...        0 min,  0.028 sec
 * total energy  :   -82.3019518 Eh     change       -0.7086570E-05 Eh
   gradient norm :     0.0016713 Eh/α   predicted    -0.3919467E-05 ( -44.69%)
   displ. norm   :     0.0106655 α      lambda       -0.5245786E-04
   maximum displ.:     0.0038702 α      in ANC's #17, #29, #6, ...

........................................................................
.............................. CYCLE   17 ..............................
........................................................................
   1    -83.3818540 -0.833819E+02  0.485E-03    3.23       0.0  T
   2    -83.3818540 -0.144220E-07  0.294E-03    3.23       4.4  T
   3    -83.3818539  0.120384E-06  0.146E-03    3.23       8.8  T
   4    -83.3818540 -0.133120E-06  0.219E-04    3.23      58.8  T
   5    -83.3818540 -0.209896E-08  0.780E-05    3.23     165.4  T
     SCC iter.                  ...        0 min,  0.014 sec
     gradient                   ...        0 min,  0.028 sec
 * total energy  :   -82.3019573 Eh     change       -0.5502198E-05 Eh
   gradient norm :     0.0019373 Eh/α   predicted    -0.2422519E-05 ( -55.97%)
   displ. norm   :     0.0224987 α      lambda       -0.8228196E-04
   maximum displ.:     0.0092000 α      in ANC's #17, #29, #6, ...

........................................................................
.............................. CYCLE   18 ..............................
........................................................................
   1    -83.3816252 -0.833816E+02  0.810E-03    3.22       0.0  T
   2    -83.3816252 -0.188165E-07  0.488E-03    3.22       2.6  T
   3    -83.3816251  0.839413E-07  0.129E-03    3.22      10.0  T
   4    -83.3816252 -0.927550E-07  0.223E-04    3.22      57.9  T
   5    -83.3816252 -0.153234E-08  0.115E-04    3.22     112.7  T
     SCC iter.                  ...        0 min,  0.014 sec
     gradient                   ...        0 min,  0.028 sec
 * total energy  :   -82.3019634 Eh     change       -0.6049044E-05 Eh
   gradient norm :     0.0014987 Eh/α   predicted    -0.3208254E-05 ( -46.96%)
   displ. norm   :     0.0165221 α      lambda       -0.4548659E-04
   maximum displ.:     0.0062962 α      in ANC's #17, #6, #29, ...

........................................................................
.............................. CYCLE   19 ..............................
........................................................................
   1    -83.3816774 -0.833817E+02  0.526E-03    3.22       0.0  T
   2    -83.3816774 -0.128912E-07  0.318E-03    3.22       4.1  T
   3    -83.3816774  0.707062E-07  0.111E-03    3.22      11.7  T
   4    -83.3816775 -0.788913E-07  0.146E-04    3.22      88.1  T
   5    -83.3816775 -0.789882E-09  0.867E-05    3.22     148.9  T
     SCC iter.                  ...        0 min,  0.014 sec
     gradient                   ...        0 min,  0.028 sec
 * total energy  :   -82.3019666 Eh     change       -0.3229942E-05 Eh
   gradient norm :     0.0016252 Eh/α   predicted    -0.1646226E-05 ( -49.03%)
   displ. norm   :     0.0160242 α      lambda       -0.4445452E-04
   maximum displ.:     0.0062961 α      in ANC's #6, #11, #28, ...

........................................................................
.............................. CYCLE   20 ..............................
........................................................................
   1    -83.3818032 -0.833818E+02  0.478E-03    3.22       0.0  T
   2    -83.3818032 -0.905821E-08  0.288E-03    3.22       4.5  T
   3    -83.3818032  0.524947E-07  0.978E-04    3.22      13.2  T
   4    -83.3818033 -0.570397E-07  0.169E-04    3.22      76.5  T
     SCC iter.                  ...        0 min,  0.011 sec
     gradient                   ...        0 min,  0.028 sec
 * total energy  :   -82.3019697 Eh     change       -0.3078005E-05 Eh
   gradient norm :     0.0007737 Eh/α   predicted    -0.1500310E-05 ( -51.26%)
   displ. norm   :     0.0158727 α      lambda       -0.3541868E-04
   maximum displ.:     0.0066560 α      in ANC's #6, #28, #11, ...

   *** GEOMETRY OPTIMIZATION CONVERGED AFTER 20 ITERATIONS ***

------------------------------------------------------------------------
 total energy gain   :        -0.1800555 Eh     -112.9866 kcal/mol
 total RMSD          :         0.0635092 a0        0.0336 Å
 total power (kW/mol):       -23.6367866 (step) -444.0886 (real)
------------------------------------------------------------------------

 ANCopt (total)                0 d,  0 h,  0 min,  1.065 sec
 optimizer setup                ...        0 min,  0.000 sec (  0.009%)
 model hessian                  ...        0 min,  0.032 sec (  3.049%)
 ANC generation                 ...        0 min,  0.003 sec (  0.254%)
 coordinate transformation      ...        0 min,  0.000 sec (  0.029%)
 single point calculation       ...        0 min,  1.021 sec ( 95.918%)
 optimization log               ...        0 min,  0.004 sec (  0.391%)
 hessian update                 ...        0 min,  0.000 sec (  0.045%)
 rational function              ...        0 min,  0.002 sec (  0.228%)

================
 final structure:
================
60
 xtb: 6.5.0 (homebrew)
C            3.47163056978112      -37.74095307081731       15.91536286774209
C            3.71850718619171      -38.14016690121359       17.36843061991636
O            3.25524154192862      -37.10206246861414       18.23163772219269
C            2.89126053410646      -39.39100980168513       17.69159089582566
C            5.23188229281608      -38.28744106566998       17.76907960707405
C            5.73834017922744      -39.72545944925383       17.85577856134610
C            6.17055704595977      -37.47731328033966       16.86628342269260
O            5.28428245550691      -37.68785378804483       19.06398500355111
B            4.15476884001003      -36.94284517300963       19.25211652078741
C            3.90077893323941      -36.04114455659801       20.49429133204656
C            4.93185615422900      -35.91237125422066       21.46524729190166
C            4.95475902897688      -35.10316258112167       22.55379125600126
H            5.88224917422702      -35.03643661292155       23.10805572698381
C            3.83351593653604      -34.26293238157388       23.07033834087565
H            4.06323933217279      -33.86661148760989       24.05898234258360
C            2.46105452072192      -34.86986617088265       23.11081075897683
B            1.71240160902645      -34.88112983659536       24.47893468339504
O            2.21908636688723      -34.36312154717726       25.63923247711336
C            1.35556448833121      -34.72113694865214       26.71752604785758
C            1.20590840640705      -33.53611473724046       27.66883041926951
C            2.03154140946649      -35.88009443488213       27.46148453513901
C            0.03322023195714      -35.15442985660294       25.98580471932039
C           -0.99354132060691      -34.01927425963475       25.88351812591990
C           -0.64783666788090      -36.39268185379468       26.56479080421834
O            0.47538672590791      -35.43460590384569       24.65858777344409
C            1.89662169519661      -35.42934338232910       22.03979671672247
C            2.48090963028912      -35.54260844387103       20.69048352330415
H            1.79857920297956      -36.03225114608615       20.00039765335475
C            3.20451754085127      -34.41002165112950       20.04149574340033
C            3.84928390075589      -33.33733406620253       20.69075015957504
C            4.18080261032340      -33.27745401142285       22.00754737909757
H            4.78580836092338      -32.43996375470932       22.33115426179706
H            2.39955311077329      -37.68068608529847       15.74454691021605
H            3.89325261576994      -38.48500733773496       15.24514334697315
H            3.90195306286505      -36.76933588133330       15.69530291279538
H            1.83930568903688      -39.15736422211271       17.54380331801346
H            3.02923901050421      -39.67483105003575       18.73186861234360
H            3.16298076506566      -40.21958352974668       17.04452682413161
H            5.62706134405150      -40.22315319364672       16.89622238172482
H            5.20509641026654      -40.28355810976875       18.61841286635418
H            6.79157450577568      -39.71128756792100       18.12472698274605
H            6.21359657999711      -37.89742741762345       15.86599895282153
H            7.16700703586516      -37.49495532225254       17.30167031363479
H            5.84484319490867      -36.44122271388955       16.81784031565192
H            5.85120278640033      -36.41881480817677       21.19824583560275
H            2.16829251331504      -33.33094735344542       28.13117404716983
H            0.48476733228141      -33.76951538715151       28.44756090478608
H            0.89050380191898      -32.64361426260359       27.13828160054995
H            3.01233399443260      -35.55052698088279       27.79673582058271
H            2.17257447145236      -36.72446546601376       26.79140754553683
H            1.44792226427430      -36.18722424836187       28.32413246346164
H           -1.40877086832705      -33.77522897891396       26.85672709704550
H           -1.79755441727666      -34.34133287807018       25.22575108368848
H           -0.53575384257992      -33.13619002271795       25.44501351308516
H           -0.91355016555157      -36.22547070496524       27.60507741392414
H           -0.00591151677905      -37.26425957708241       26.48904016653148
H           -1.55370116290974      -36.59214417435867       25.99776327910892
H            0.91086554101028      -35.85993703517647       22.15523587020069
H            3.08725885141962      -34.34384482020721       18.97025910071116
H            4.24560917559332      -32.56576499275599       20.04125322718174

 Bond Distances (Angstroems)
 ---------------------------
C1-C2=1.5270         C1-H33=1.0873        C1-H34=1.0865        C1-H35=1.0852        C2-C1=1.5270         C2-O3=1.4274         
C2-C4=1.5341         C2-C5=1.5724         O3-C2=1.4274         O3-B9=1.3696         C4-C2=1.5341         C4-H36=1.0877        
C4-H37=1.0871        C4-H38=1.0858        C5-C2=1.5724         C5-C6=1.5271         C5-C7=1.5338         C5-O8=1.4279         
C6-C5=1.5271         C6-H39=1.0867        C6-H40=1.0851        C6-H41=1.0871        C7-C5=1.5338         C7-H42=1.0858        
C7-H43=1.0876        C7-H44=1.0872        O8-C5=1.4279         O8-B9=1.3661         B9-O3=1.3696         B9-O8=1.3661         
B9-C10=1.5558        C10-B9=1.5558        C10-C11=1.4221       C10-C27=1.5176       C10-C29=1.8304       C11-C10=1.4221       
C11-C12=1.3566       C11-H45=1.0830       C12-C11=1.3566       C12-H13=1.0825       C12-C14=1.4933       H13-C12=1.0825       
C14-C12=1.4933       C14-H15=1.0896       C14-C16=1.5012       C14-C31=1.4904       H15-C14=1.0896       C16-C14=1.5012       
C16-B17=1.5596       C16-C26=1.3337       B17-C16=1.5596       B17-O18=1.3680       B17-O25=1.3670       O18-B17=1.3680       
O18-C19=1.4271       C19-O18=1.4271       C19-C20=1.5270       C19-C21=1.5341       C19-C22=1.5722       C20-C19=1.5270       
C20-H46=1.0872       C20-H47=1.0867       C20-H48=1.0851       C21-C19=1.5341       C21-H49=1.0876       C21-H50=1.0871       
C21-H51=1.0859       C22-C19=1.5722       C22-C23=1.5340       C22-C24=1.5272       C22-O25=1.4267       C23-C22=1.5340       
C23-H52=1.0859       C23-H53=1.0876       C23-H54=1.0871       C24-C22=1.5272       C24-H55=1.0866       C24-H56=1.0851       
C24-H57=1.0872       O25-B17=1.3670       O25-C22=1.4267       C26-C16=1.3337       C26-C27=1.4747       C26-H58=1.0819       
C27-C10=1.5176       C27-C26=1.4747       C27-H28=1.0870       C27-C29=1.4925       H28-C27=1.0870       C29-C10=1.8304       
C29-C27=1.4925       C29-C30=1.4099       C29-H59=1.0797       C30-C29=1.4099       C30-C31=1.3592       C30-H60=1.0836       
C31-C14=1.4904       C31-C30=1.3592       C31-H32=1.0827       H32-C31=1.0827       H33-C1=1.0873        H34-C1=1.0865        
H35-C1=1.0852        H36-C4=1.0877        H37-C4=1.0871        H38-C4=1.0858        H39-C6=1.0867        H40-C6=1.0851        
H41-C6=1.0871        H42-C7=1.0858        H43-C7=1.0876        H44-C7=1.0872        H45-C11=1.0830       H46-C20=1.0872       
H47-C20=1.0867       H48-C20=1.0851       H49-C21=1.0876       H50-C21=1.0871       H51-C21=1.0859       H52-C23=1.0859       
H53-C23=1.0876       H54-C23=1.0871       H55-C24=1.0866       H56-C24=1.0851       H57-C24=1.0872       H58-C26=1.0819       
H59-C29=1.0797       H60-C30=1.0836       
 C  H  Rav=1.0859 sigma=0.0020  Rmin=1.0797  Rmax=1.0896    32
 C  B  Rav=1.5577 sigma=0.0019  Rmin=1.5558  Rmax=1.5596     2
 C  C  Rav=1.5032 sigma=0.0978  Rmin=1.3337  Rmax=1.8304    22
 O  B  Rav=1.3677 sigma=0.0013  Rmin=1.3661  Rmax=1.3696     4
 O  C  Rav=1.4273 sigma=0.0005  Rmin=1.4267  Rmax=1.4279     4

 selected bond angles (degree)
 --------------------
H33-C1-C2=108.87               H34-C1-C2=110.19               H34-C1-H33=108.88              H35-C1-C2=111.28               
H35-C1-H33=108.03              H35-C1-H34=109.52              O3-C2-C1=109.44                C4-C2-C1=109.05                
C4-C2-O3=106.89                C5-C2-C1=115.00                C5-C2-O3=103.09                C5-C2-C4=112.89                
B9-O3-C2=108.78                H36-C4-C2=108.53               H37-C4-C2=110.24               H37-C4-H36=107.99              
H38-C4-C2=111.21               H38-C4-H36=108.96              H38-C4-H37=109.83              C6-C5-C2=114.95                
C7-C5-C2=112.93                C7-C5-C6=109.14                O8-C5-C2=103.12                O8-C5-C6=109.38                
O8-C5-C7=106.83                H39-C6-C5=110.32               H40-C6-C5=111.18               H40-C6-H39=109.56              
H41-C6-C5=108.85               H41-C6-H39=108.88              H41-C6-H40=108.00              H42-C7-C5=111.23               
H43-C7-C5=108.45               H43-C7-H42=109.04              H44-C7-C5=110.26               H44-C7-H42=109.85              
H44-C7-H43=107.93              B9-O8-C5=108.88                O8-B9-O3=112.15                C10-B9-O3=123.71               
C10-B9-O8=124.12               C11-C10-B9=118.63              C27-C10-B9=116.51              C27-C10-C11=124.08             
C29-C10-B9=112.40              C29-C10-C11=111.35             C29-C10-C27= 51.93             

 selected dihedral angles (degree)
 ---------------------------------
O3-C2-C1-H33=294.71           O3-C2-C1-H34=175.36           O3-C2-C1-H35= 53.66           C4-C2-C1-H33= 51.32           
C4-C2-C1-H34=291.97           C4-C2-C1-H35=170.28           C5-C2-C1-H33=179.27           C5-C2-C1-H34= 59.92           
C5-C2-C1-H35=298.23           B9-O3-C2-C1=220.62            B9-O3-C2-C4=102.65            B9-O3-C2-C5=343.45            
H36-C4-C2-C1=299.81           H36-C4-C2-O3= 58.04           H36-C4-C2-C5=170.68           H37-C4-C2-C1=181.73           
H37-C4-C2-O3=299.95           H37-C4-C2-C5= 52.60           H38-C4-C2-C1= 59.66           H38-C4-C2-O3=177.88           
H38-C4-C2-C5=290.53           C6-C5-C2-C1=257.66            C6-C5-C2-O3=138.62            C6-C5-C2-C4= 23.66            
C7-C5-C2-C1= 23.78            C7-C5-C2-O3=264.74            C7-C5-C2-C4=149.78            O8-C5-C2-C1=138.70            
O8-C5-C2-O3= 19.66            O8-C5-C2-C4=264.70            H39-C6-C5-C2= 59.84           H39-C6-C5-C7=291.80           
H39-C6-C5-O8=175.25           H40-C6-C5-C2=298.09           H40-C6-C5-C7=170.05           H40-C6-C5-O8= 53.50           
H41-C6-C5-C2=179.25           H41-C6-C5-C7= 51.21           H41-C6-C5-O8=294.66           H42-C7-C5-C2=290.56           
H42-C7-C5-C6= 59.73           H42-C7-C5-O8=177.88           H43-C7-C5-C2=170.65           H43-C7-C5-C6=299.82           
H43-C7-C5-O8= 57.97           H44-C7-C5-C2= 52.68           H44-C7-C5-C6=181.85           H44-C7-C5-O8=300.00           
B9-O8-C5-C2=343.87            B9-O8-C5-C6=221.10            B9-O8-C5-C7=103.10            O8-B9-O3-C2=  7.36            
C10-B9-O3-C2=188.63           O3-B9-O8-C5=  6.62            C10-B9-O8-C5=185.35           C11-C10-B9-O3=182.47          
C11-C10-B9-O8=  3.88          C27-C10-B9-O3= 12.15          C27-C10-B9-O8=193.56          C29-C10-B9-O3=314.81          
C29-C10-B9-O8=136.23          
           -------------------------------------------------
          |                Final Singlepoint                |
           -------------------------------------------------

          ...................................................
          :                      SETUP                      :
          :.................................................:
          :  # basis functions                 144          :
          :  # atomic orbitals                 144          :
          :  # shells                           88          :
          :  # electrons                       150          :
          :  max. iterations                   250          :
          :  Hamiltonian                  GFN2-xTB          :
          :  restarted?                      false          :
          :  GBSA solvation                  false          :
          :  PC potential                    false          :
          :  electronic temp.          300.0000000     K    :
          :  accuracy                    1.0000000          :
          :  -> integral cutoff          0.2500000E+02      :
          :  -> integral neglect         0.1000000E-07      :
          :  -> SCF convergence          0.1000000E-05 Eh   :
          :  -> wf. convergence          0.1000000E-03 e    :
          :  Broyden damping             0.4000000          :
          ...................................................

 iter      E             dE          RMSdq      gap      omega  full diag
   1    -83.3818033 -0.833818E+02  0.696E-05    3.22       0.0  T
   2    -83.3818033 -0.359535E-10  0.580E-05    3.22     222.8  T
   3    -83.3818033 -0.169237E-09  0.233E-05    3.22     554.5  T

   *** convergence criteria satisfied after 3 iterations ***

         #    Occupation            Energy/Eh            Energy/eV
      -------------------------------------------------------------
         1        2.0000           -0.6905887             -18.7919
       ...           ...                  ...                  ...
        69        2.0000           -0.4050481             -11.0219
        70        2.0000           -0.3994531             -10.8697
        71        2.0000           -0.3969165             -10.8006
        72        2.0000           -0.3947437             -10.7415
        73        2.0000           -0.3841727             -10.4539
        74        2.0000           -0.3513429              -9.5605
        75        2.0000           -0.3452058              -9.3935 (HOMO)
        76                         -0.2267687              -6.1707 (LUMO)
        77                         -0.2029456              -5.5224
        78                         -0.1859365              -5.0596
        79                         -0.1326270              -3.6090
        80                         -0.0965400              -2.6270
       ...                                ...                  ...
       144                          0.6905480              18.7908
      -------------------------------------------------------------
                  HL-Gap            0.1184370 Eh            3.2228 eV
             Fermi-level           -0.2859873 Eh           -7.7821 eV

 SCC (total)                   0 d,  0 h,  0 min,  0.043 sec
 SCC setup                      ...        0 min,  0.000 sec (  0.528%)
 Dispersion                     ...        0 min,  0.000 sec (  0.894%)
 classical contributions        ...        0 min,  0.000 sec (  0.401%)
 integral evaluation            ...        0 min,  0.006 sec ( 13.963%)
 iterations                     ...        0 min,  0.008 sec ( 19.454%)
 molecular gradient             ...        0 min,  0.028 sec ( 63.955%)
 printout                       ...        0 min,  0.000 sec (  0.794%)

         :::::::::::::::::::::::::::::::::::::::::::::::::::::
         ::                     SUMMARY                     ::
         :::::::::::::::::::::::::::::::::::::::::::::::::::::
         :: total energy             -82.301969669682 Eh    ::
         :: gradient norm              0.000772937891 Eh/a0 ::
         :: HOMO-LUMO gap              3.222835948250 eV    ::
         ::.................................................::
         :: SCC energy               -83.381803254685 Eh    ::
         :: -> isotropic ES            0.148108263534 Eh    ::
         :: -> anisotropic ES          0.011410968407 Eh    ::
         :: -> anisotropic XC          0.026672455453 Eh    ::
         :: -> dispersion             -0.061736943901 Eh    ::
         :: repulsion energy           1.079098421418 Eh    ::
         :: add. restraining           0.000071077244 Eh    ::
         :: total charge              -0.000000000000 e     ::
         :::::::::::::::::::::::::::::::::::::::::::::::::::::

           -------------------------------------------------
          |                Property Printout                |
           -------------------------------------------------

    * Orbital Energies and Occupations

         #    Occupation            Energy/Eh            Energy/eV
      -------------------------------------------------------------
         1        2.0000           -0.6905887             -18.7919
       ...           ...                  ...                  ...
        63        2.0000           -0.4343757             -11.8200
        64        2.0000           -0.4331595             -11.7869
        65        2.0000           -0.4282474             -11.6532
        66        2.0000           -0.4224510             -11.4955
        67        2.0000           -0.4189929             -11.4014
        68        2.0000           -0.4151967             -11.2981
        69        2.0000           -0.4050481             -11.0219
        70        2.0000           -0.3994531             -10.8697
        71        2.0000           -0.3969165             -10.8006
        72        2.0000           -0.3947437             -10.7415
        73        2.0000           -0.3841727             -10.4539
        74        2.0000           -0.3513429              -9.5605
        75        2.0000           -0.3452058              -9.3935 (HOMO)
        76                         -0.2267687              -6.1707 (LUMO)
        77                         -0.2029456              -5.5224
        78                         -0.1859365              -5.0596
        79                         -0.1326270              -3.6090
        80                         -0.0965400              -2.6270
        81                         -0.0466589              -1.2697
        82                          0.0067842               0.1846
        83                          0.0101602               0.2765
        84                          0.0264514               0.7198
        85                          0.0296326               0.8063
        86                          0.0554135               1.5079
       ...                                ...                  ...
       144                          0.6905480              18.7908
      -------------------------------------------------------------
                  HL-Gap            0.1184370 Eh            3.2228 eV
             Fermi-level           -0.2859873 Eh           -7.7821 eV

     #   Z          covCN         q      C6AA      α(0)
     1   6 C        3.755    -0.117    22.795     6.808
     2   6 C        3.858     0.130    18.443     6.108
     3   8 O        1.638    -0.378    20.440     6.103
     4   6 C        3.755    -0.116    22.782     6.806
     5   6 C        3.859     0.129    18.447     6.108
     6   6 C        3.755    -0.118    22.809     6.810
     7   6 C        3.755    -0.116    22.772     6.804
     8   8 O        1.638    -0.372    20.327     6.086
     9   5 B        2.657     0.437    15.516     6.633
    10   6 C        3.662    -0.067    22.069     6.739
    11   6 C        2.891    -0.051    29.276     8.871
    12   6 C        3.263    -0.025    27.399     8.453
    13   1 H        0.925     0.025     2.651     2.546
    14   6 C        3.865    -0.014    20.791     6.484
    15   1 H        0.925     0.044     2.392     2.419
    16   6 C        2.864    -0.083    30.065     8.988
    17   5 B        2.662     0.432    15.558     6.639
    18   8 O        1.638    -0.371    20.307     6.083
    19   6 C        3.860     0.129    18.455     6.109
    20   6 C        3.755    -0.117    22.797     6.808
    21   6 C        3.755    -0.116    22.776     6.805
    22   6 C        3.860     0.129    18.455     6.109
    23   6 C        3.755    -0.116    22.782     6.806
    24   6 C        3.755    -0.117    22.804     6.809
    25   8 O        1.638    -0.371    20.312     6.084
    26   6 C        2.896    -0.027    28.675     8.780
    27   6 C        3.862    -0.009    20.705     6.471
    28   1 H        0.925     0.044     2.392     2.418
    29   6 C        3.690    -0.013    20.992     6.557
    30   6 C        2.888    -0.052    29.289     8.873
    31   6 C        3.265    -0.022    27.288     8.433
    32   1 H        0.925     0.026     2.639     2.540
    33   1 H        0.925     0.054     2.265     2.353
    34   1 H        0.925     0.040     2.450     2.448
    35   1 H        0.925     0.051     2.303     2.373
    36   1 H        0.925     0.052     2.293     2.368
    37   1 H        0.925     0.044     2.397     2.421
    38   1 H        0.925     0.043     2.413     2.429
    39   1 H        0.925     0.040     2.446     2.446
    40   1 H        0.925     0.052     2.289     2.366
    41   1 H        0.925     0.055     2.260     2.351
    42   1 H        0.925     0.043     2.410     2.428
    43   1 H        0.925     0.053     2.287     2.365
    44   1 H        0.925     0.043     2.408     2.427
    45   1 H        0.925     0.031     2.568     2.506
    46   1 H        0.925     0.054     2.269     2.356
    47   1 H        0.925     0.040     2.455     2.450
    48   1 H        0.925     0.052     2.296     2.370
    49   1 H        0.925     0.052     2.295     2.369
    50   1 H        0.925     0.044     2.400     2.422
    51   1 H        0.925     0.042     2.420     2.433
    52   1 H        0.925     0.042     2.416     2.431
    53   1 H        0.925     0.052     2.292     2.367
    54   1 H        0.925     0.044     2.399     2.422
    55   1 H        0.925     0.040     2.453     2.449
    56   1 H        0.925     0.052     2.295     2.369
    57   1 H        0.925     0.054     2.267     2.355
    58   1 H        0.925     0.038     2.476     2.461
    59   1 H        0.926     0.035     2.515     2.480
    60   1 H        0.925     0.021     2.715     2.577

 Mol. C6AA /au·bohr⁶  :      32740.346645
 Mol. C8AA /au·bohr⁸  :     757839.017735
 Mol. α(0) /au        :        272.680959


Wiberg/Mayer (AO) data.
largest (>0.10) Wiberg bond orders for each atom

 ---------------------------------------------------------------------------
     #   Z sym  total        # sym  WBO       # sym  WBO       # sym  WBO
 ---------------------------------------------------------------------------
     1   6 C    3.994 --     2 C    0.997    34 H    0.984    33 H    0.983
                            35 H    0.982
     2   6 C    3.943 --     1 C    0.997     4 C    0.991     3 O    0.952
                             5 C    0.937
     3   8 O    2.222 --     9 B    1.120     2 C    0.952
     4   6 C    3.994 --     2 C    0.991    38 H    0.984    37 H    0.984
                            36 H    0.983
     5   6 C    3.942 --     6 C    0.997     7 C    0.991     8 O    0.951
                             2 C    0.937
     6   6 C    3.994 --     5 C    0.997    39 H    0.984    41 H    0.982
                            40 H    0.982
     7   6 C    3.994 --     5 C    0.991    42 H    0.984    44 H    0.984
                            43 H    0.983
     8   8 O    2.231 --     9 B    1.130     5 C    0.951
     9   5 B    3.382 --     8 O    1.130     3 O    1.120    10 C    1.011
    10   6 C    3.927 --    11 C    1.248     9 B    1.011    27 C    0.904
                            29 C    0.549
    11   6 C    3.988 --    12 C    1.631    10 C    1.248    45 H    0.962
    12   6 C    3.973 --    11 C    1.631    13 H    0.971    14 C    0.959
                            31 C    0.235
    13   1 H    0.999 --    12 C    0.971
    14   6 C    3.987 --    16 C    0.995    15 H    0.969    31 C    0.968
                            12 C    0.959
    15   1 H    0.998 --    14 C    0.969
    16   6 C    3.977 --    26 C    1.836    17 B    1.000    14 C    0.995
    17   5 B    3.376 --    25 O    1.130    18 O    1.128    16 C    1.000
    18   8 O    2.233 --    17 B    1.128    19 C    0.953
    19   6 C    3.943 --    20 C    0.997    21 C    0.991    18 O    0.953
                            22 C    0.936
    20   6 C    3.994 --    19 C    0.997    47 H    0.984    46 H    0.983
                            48 H    0.982
    21   6 C    3.994 --    19 C    0.991    51 H    0.984    50 H    0.984
                            49 H    0.983
    22   6 C    3.943 --    24 C    0.996    23 C    0.990    25 O    0.953
                            19 C    0.936
    23   6 C    3.995 --    22 C    0.990    52 H    0.984    54 H    0.984
                            53 H    0.983
    24   6 C    3.994 --    22 C    0.996    55 H    0.985    57 H    0.983
                            56 H    0.982
    25   8 O    2.234 --    17 B    1.130    22 C    0.953
    26   6 C    3.988 --    16 C    1.836    27 C    1.038    58 H    0.966
    27   6 C    3.975 --    26 C    1.038    28 H    0.968    29 C    0.951
                            10 C    0.904
    28   1 H    0.998 --    27 C    0.968
    29   6 C    3.945 --    30 C    1.278    59 H    0.973    27 C    0.951
                            10 C    0.549
    30   6 C    3.985 --    31 C    1.608    29 C    1.278    60 H    0.965
    31   6 C    3.965 --    30 C    1.608    32 H    0.972    14 C    0.968
                            12 C    0.235
    32   1 H    0.999 --    31 C    0.972
    33   1 H    0.997 --     1 C    0.983
    34   1 H    0.998 --     1 C    0.984
    35   1 H    0.997 --     1 C    0.982
    36   1 H    0.997 --     4 C    0.983
    37   1 H    0.998 --     4 C    0.984
    38   1 H    0.998 --     4 C    0.984
    39   1 H    0.998 --     6 C    0.984
    40   1 H    0.997 --     6 C    0.982
    41   1 H    0.997 --     6 C    0.982
    42   1 H    0.998 --     7 C    0.984
    43   1 H    0.997 --     7 C    0.983
    44   1 H    0.998 --     7 C    0.984
    45   1 H    0.999 --    11 C    0.962
    46   1 H    0.997 --    20 C    0.983
    47   1 H    0.998 --    20 C    0.984
    48   1 H    0.997 --    20 C    0.982
    49   1 H    0.997 --    21 C    0.983
    50   1 H    0.998 --    21 C    0.984
    51   1 H    0.998 --    21 C    0.984
    52   1 H    0.998 --    23 C    0.984
    53   1 H    0.997 --    23 C    0.983
    54   1 H    0.998 --    23 C    0.984
    55   1 H    0.998 --    24 C    0.985
    56   1 H    0.997 --    24 C    0.982
    57   1 H    0.997 --    24 C    0.983
    58   1 H    0.998 --    26 C    0.966
    59   1 H    0.998 --    29 C    0.973
    60   1 H    0.999 --    30 C    0.965
 ---------------------------------------------------------------------------

Topologies differ in total number of bonds
Writing topology from bond orders to xtbtopo.mol

molecular dipole:
                 x           y           z       tot (Debye)
 q only:       -0.302      -0.473      -0.011
   full:       -0.199      -0.548      -0.110       1.509
molecular quadrupole (traceless):
                xx          xy          yy          xz          yz          zz
 q only:      -44.629      23.738      58.968     -31.379     -18.184     -14.339
  q+dip:      -44.898      14.858      69.540     -26.230     -10.577     -24.642
   full:      -45.472      13.672      71.338     -27.372     -11.998     -25.867

           -------------------------------------------------
          |                Geometry Summary                 |
           -------------------------------------------------

      molecular mass/u    :      382.1099696
   center of mass at/Å    :        2.9443410     -35.9358814      21.8356743
  moments of inertia/u·Å² :        0.1188490E+04   0.6826936E+04   0.7135599E+04
rotational constants/cm⁻¹ :        0.1418407E-01   0.2469282E-02   0.2362469E-02

 * 60 selected distances

     #   Z          #   Z                                           value/Å
     1   6 C        2   6 C                                       1.5269990
     2   6 C        3   8 O                                       1.4273762
     2   6 C        4   6 C                                       1.5340724
     5   6 C        6   6 C                                       1.5270604
     5   6 C        7   6 C                                       1.5337727
     5   6 C        8   8 O                                       1.4279464
     3   8 O        9   5 B                                       1.3696265
     8   8 O        9   5 B                                       1.3661013
     9   5 B       10   6 C                                       1.5558193
    10   6 C       11   6 C                                       1.4221317
    11   6 C       12   6 C                                       1.3565661
    12   6 C       13   1 H                                       1.0825431
    12   6 C       14   6 C                                       1.4933165
    14   6 C       15   1 H                                       1.0896147
    16   6 C       17   5 B                                       1.5596062 (max)
    17   5 B       18   8 O                                       1.3679742
    18   8 O       19   6 C                                       1.4270818
    19   6 C       20   6 C                                       1.5269758
    19   6 C       21   6 C                                       1.5341453
    22   6 C       23   6 C                                       1.5340406
    22   6 C       24   6 C                                       1.5271974
    17   5 B       25   8 O                                       1.3670469
    22   6 C       25   8 O                                       1.4267148
    16   6 C       26   6 C                                       1.3336681
    10   6 C       27   6 C                                       1.5175832
    26   6 C       27   6 C                                       1.4747433
    27   6 C       28   1 H                                       1.0869883
    27   6 C       29   6 C                                       1.4924968
    29   6 C       30   6 C                                       1.4099340
    14   6 C       31   6 C                                       1.4904029
    30   6 C       31   6 C                                       1.3592077
    31   6 C       32   1 H                                       1.0826558
     1   6 C       33   1 H                                       1.0872720
     1   6 C       34   1 H                                       1.0865433
     1   6 C       35   1 H                                       1.0851931
     4   6 C       36   1 H                                       1.0876767
     4   6 C       37   1 H                                       1.0870927
     4   6 C       38   1 H                                       1.0858446
     6   6 C       39   1 H                                       1.0866602
     6   6 C       40   1 H                                       1.0850965
     6   6 C       41   1 H                                       1.0871232
     7   6 C       42   1 H                                       1.0857797
     7   6 C       43   1 H                                       1.0875596
     7   6 C       44   1 H                                       1.0871615
    11   6 C       45   1 H                                       1.0830389
    20   6 C       46   1 H                                       1.0872160
    20   6 C       47   1 H                                       1.0867114
    20   6 C       48   1 H                                       1.0851357
    21   6 C       49   1 H                                       1.0876408
    21   6 C       50   1 H                                       1.0871321
    21   6 C       51   1 H                                       1.0858645
    23   6 C       52   1 H                                       1.0858681
    23   6 C       53   1 H                                       1.0875737
    23   6 C       54   1 H                                       1.0870573
    24   6 C       55   1 H                                       1.0866277
    24   6 C       56   1 H                                       1.0851055
    24   6 C       57   1 H                                       1.0871505
    26   6 C       58   1 H                                       1.0818745
    29   6 C       59   1 H                                       1.0796653 (min)
    30   6 C       60   1 H                                       1.0836231

 * 5 distinct bonds (by element types)

   Z      Z             #   av. dist./Å        max./Å        min./Å
   1 H    6 C          32     1.0858778     1.0896147     1.0796653
   5 B    6 C           2     1.5577127     1.5596062     1.5558193
   6 C    6 C          18     1.4774619     1.5341453     1.3336681
   5 B    8 O           4     1.3676872     1.3696265     1.3661013
   6 C    8 O           4     1.4272798     1.4279464     1.4267148


optimized geometry written to: xtbopt.xyz


           -------------------------------------------------
          | TOTAL ENERGY              -82.301969669682 Eh   |
          | GRADIENT NORM               0.000772937891 Eh/α |
          | HOMO-LUMO GAP               3.222835948250 eV   |
           -------------------------------------------------

------------------------------------------------------------------------
 * finished run on 2022/07/09 at 18:33:31.111     
------------------------------------------------------------------------
 total:
 * wall-time:     0 d,  0 h,  0 min,  1.188 sec
 *  cpu-time:     0 d,  0 h,  0 min,  1.187 sec
 * ratio c/w:     0.999 speedup
 SCF:
 * wall-time:     0 d,  0 h,  0 min,  0.067 sec
 *  cpu-time:     0 d,  0 h,  0 min,  0.067 sec
 * ratio c/w:     1.000 speedup
 ANC optimizer:
 * wall-time:     0 d,  0 h,  0 min,  1.109 sec
 *  cpu-time:     0 d,  0 h,  0 min,  1.108 sec
 * ratio c/w:     0.999 speedup

