      -----------------------------------------------------------      
     |                   =====================                   |     
     |                           x T B                           |     
     |                   =====================                   |     
     |                         S. Grimme                         |     
     |          Mulliken Center for Theoretical Chemistry        |     
     |                    University of Bonn                     |     
      -----------------------------------------------------------      

   * xtb version 6.5.0 (homebrew) compiled by 'nhattrup@GPGGRP-SHANNON.CHEME.CMU.EDU' on 

   xtb is free software: you can redistribute it and/or modify it under
   the terms of the GNU Lesser General Public License as published by
   the Free Software Foundation, either version 3 of the License, or
   (at your option) any later version.
   
   xtb is distributed in the hope that it will be useful,
   but WITHOUT ANY WARRANTY; without even the implied warranty of
   MERCHANTABILITY or FITNESS FOR A PARTICULAR PURPOSE.  See the
   GNU Lesser General Public License for more details.
   
   Cite this work as:
   * C. Bannwarth, E. Caldeweyher, S. Ehlert, A. Hansen, P. Pracht,
     J. Seibert, S. Spicher, S. Grimme, WIREs Comput. Mol. Sci., 2020, 11,
     e01493. DOI: 10.1002/wcms.1493
   
   for GFN2-xTB:
   * C. Bannwarth, S. Ehlert and S. Grimme., J. Chem. Theory Comput., 2019,
     15, 1652-1671. DOI: 10.1021/acs.jctc.8b01176
   for GFN1-xTB:
   * S. Grimme, C. Bannwarth, P. Shushkov, J. Chem. Theory Comput., 2017,
     13, 1989-2009. DOI: 10.1021/acs.jctc.7b00118
   for GFN0-xTB:
   * P. Pracht, E. Caldeweyher, S. Ehlert, S. Grimme, ChemRxiv, 2019, preprint.
     DOI: 10.26434/chemrxiv.8326202.v1
   for GFN-FF:
   * S. Spicher and S. Grimme, Angew. Chem. Int. Ed., 2020, 59, 15665-15673.
     DOI: 10.1002/anie.202004239
   
   for ALPB and GBSA implicit solvation:
   * S. Ehlert, M. Stahn, S. Spicher, S. Grimme, J. Chem. Theory Comput.,
     2021, 17, 4250-4261. DOI: 10.1021/acs.jctc.1c00471
   
   for DFT-D4:
   * E. Caldeweyher, C. Bannwarth and S. Grimme, J. Chem. Phys., 2017,
     147, 034112. DOI: 10.1063/1.4993215
   * E. Caldeweyher, S. Ehlert, A. Hansen, H. Neugebauer, S. Spicher,
     C. Bannwarth and S. Grimme, J. Chem. Phys., 2019, 150, 154122.
     DOI: 10.1063/1.5090222
   * E. Caldeweyher, J.-M. Mewes, S. Ehlert and S. Grimme, Phys. Chem. Chem. Phys.
     2020, 22, 8499-8512. DOI: 10.1039/D0CP00502A
   
   for sTDA-xTB:
   * S. Grimme and C. Bannwarth, J. Chem. Phys., 2016, 145, 054103.
     DOI: 10.1063/1.4959605
   
   in the mass-spec context:
   * V. Asgeirsson, C. Bauer and S. Grimme, Chem. Sci., 2017, 8, 4879.
     DOI: 10.1039/c7sc00601b
   * J. Koopman and S. Grimme, ACS Omega 2019, 4, 12, 15120-15133.
     DOI: 10.1021/acsomega.9b02011
   
   for metadynamics refer to:
   * S. Grimme, J. Chem. Theory Comput., 2019, 155, 2847-2862
     DOI: 10.1021/acs.jctc.9b00143
   
   for SPH calculations refer to:
   * S. Spicher and S. Grimme, J. Chem. Theory Comput., 2021, 17, 1701-1714
     DOI: 10.1021/acs.jctc.0c01306
   
   with help from (in alphabetical order)
   P. Atkinson, C. Bannwarth, F. Bohle, G. Brandenburg, E. Caldeweyher
   M. Checinski, S. Dohm, S. Ehlert, S. Ehrlich, I. Gerasimov, C. Hölzer
   A. Katbashev, J. Koopman, C. Lavigne, S. Lehtola, F. März, M. Müller,
   F. Musil, H. Neugebauer, J. Pisarek, C. Plett, P. Pracht, F. Pultar,
   J. Seibert, P. Shushkov, S. Spicher, M. Stahn, M. Steiner, T. Strunk,
   J. Stückrath, T. Rose, and J. Unsleber
   
 * started run on 2022/07/09 at 18:33:08.479     

           -------------------------------------------------
          |                Calculation Setup                |
           -------------------------------------------------

          program call               : /opt/homebrew/bin/xtb bvl_bpin2_scan_0-6_xtb.xyz --chrg 0 --uhf 0 --opt --input xcontrol_bvl_bpin2_scan_0-6_xtb
          coordinate file            : bvl_bpin2_scan_0-6_xtb.xyz
          omp threads                :                     1

   ID    Z sym.   atoms
    1    6 C      1, 2, 4-7, 10-12, 14, 16, 19-24, 26, 27, 29-31
    2    8 O      3, 8, 18, 25
    3    5 B      9, 17
    4    1 H      13, 15, 28, 32-60
constraining bond 12 31 to    1.5000000 Å, actual value:    1.5044348 Å
constraining bond 10 29 to    1.8333000 Å, actual value:    1.9486675 Å

           -------------------------------------------------
          |                 G F N 2 - x T B                 |
           -------------------------------------------------

        Reference                      10.1021/acs.jctc.8b01176
      * Hamiltonian:
        H0-scaling (s, p, d)           1.850000    2.230000    2.230000
        zeta-weighting                 0.500000
      * Dispersion:
        s8                             2.700000
        a1                             0.520000
        a2                             5.000000
        s9                             5.000000
      * Repulsion:
        kExp                           1.500000    1.000000
        rExp                           1.000000
      * Coulomb:
        alpha                          2.000000
        third order                    shell-resolved
        anisotropic                    true
        a3                             3.000000
        a5                             4.000000
        cn-shift                       1.200000
        cn-exp                         4.000000
        max-rad                        5.000000


          ...................................................
          :                      SETUP                      :
          :.................................................:
          :  # basis functions                 144          :
          :  # atomic orbitals                 144          :
          :  # shells                           88          :
          :  # electrons                       150          :
          :  max. iterations                   250          :
          :  Hamiltonian                  GFN2-xTB          :
          :  restarted?                      false          :
          :  GBSA solvation                  false          :
          :  PC potential                    false          :
          :  electronic temp.          300.0000000     K    :
          :  accuracy                    1.0000000          :
          :  -> integral cutoff          0.2500000E+02      :
          :  -> integral neglect         0.1000000E-07      :
          :  -> SCF convergence          0.1000000E-05 Eh   :
          :  -> wf. convergence          0.1000000E-03 e    :
          :  Broyden damping             0.4000000          :
          ...................................................

 iter      E             dE          RMSdq      gap      omega  full diag
   1    -82.9543410 -0.829543E+02  0.465E+00    3.05       0.0  T
   2    -83.3401395 -0.385799E+00  0.287E+00    2.57       1.0  T
   3    -83.3535349 -0.133954E-01  0.135E+00    2.90       1.0  T
   4    -83.3752994 -0.217645E-01  0.400E-01    2.75       1.0  T
   5    -83.3862761 -0.109767E-01  0.147E-01    2.81       1.0  T
   6    -83.3862138  0.623691E-04  0.102E-01    2.82       1.0  T
   7    -83.3864699 -0.256157E-03  0.310E-02    2.81       1.0  T
   8    -83.3865068 -0.368647E-04  0.936E-03    2.81       1.4  T
   9    -83.3865082 -0.142946E-05  0.543E-03    2.81       2.4  T
  10    -83.3865090 -0.817917E-06  0.248E-03    2.81       5.2  T
  11    -83.3865092 -0.113846E-06  0.585E-04    2.81      22.1  T
  12    -83.3865092 -0.141216E-07  0.276E-04    2.81      46.9  T

   *** convergence criteria satisfied after 12 iterations ***

         #    Occupation            Energy/Eh            Energy/eV
      -------------------------------------------------------------
         1        2.0000           -0.6903533             -18.7855
       ...           ...                  ...                  ...
        69        2.0000           -0.4074772             -11.0880
        70        2.0000           -0.3993609             -10.8672
        71        2.0000           -0.3984642             -10.8428
        72        2.0000           -0.3959916             -10.7755
        73        2.0000           -0.3794758             -10.3261
        74        2.0000           -0.3713278             -10.1043
        75        2.0000           -0.3267790              -8.8921 (HOMO)
        76                         -0.2234522              -6.0804 (LUMO)
        77                         -0.2161024              -5.8804
        78                         -0.1684916              -4.5849
        79                         -0.1021069              -2.7785
        80                         -0.0827337              -2.2513
       ...                                ...                  ...
       144                          0.6968273              18.9616
      -------------------------------------------------------------
                  HL-Gap            0.1033268 Eh            2.8117 eV
             Fermi-level           -0.2751156 Eh           -7.4863 eV

 SCC (total)                   0 d,  0 h,  0 min,  0.067 sec
 SCC setup                      ...        0 min,  0.000 sec (  0.352%)
 Dispersion                     ...        0 min,  0.000 sec (  0.610%)
 classical contributions        ...        0 min,  0.000 sec (  0.259%)
 integral evaluation            ...        0 min,  0.006 sec (  9.119%)
 iterations                     ...        0 min,  0.033 sec ( 48.304%)
 molecular gradient             ...        0 min,  0.027 sec ( 40.834%)
 printout                       ...        0 min,  0.000 sec (  0.508%)

         :::::::::::::::::::::::::::::::::::::::::::::::::::::
         ::                     SUMMARY                     ::
         :::::::::::::::::::::::::::::::::::::::::::::::::::::
         :: total energy             -82.206446671397 Eh    ::
         :: gradient norm              1.187542508031 Eh/a0 ::
         :: HOMO-LUMO gap              2.811665023679 eV    ::
         ::.................................................::
         :: SCC energy               -83.386509166047 Eh    ::
         :: -> isotropic ES            0.147576035327 Eh    ::
         :: -> anisotropic ES          0.011471267271 Eh    ::
         :: -> anisotropic XC          0.026091258951 Eh    ::
         :: -> dispersion             -0.061059996470 Eh    ::
         :: repulsion energy           1.084198338865 Eh    ::
         :: add. restraining           0.095199782393 Eh    ::
         :: total charge               0.000000000000 e     ::
         :::::::::::::::::::::::::::::::::::::::::::::::::::::

      ----------------------------------------------------------- 
     |                   =====================                   |
     |                        A N C O P T                        |
     |                   =====================                   |
     |               Approximate Normal Coordinate               |
     |                Rational Function Optimizer                |
      ----------------------------------------------------------- 

          ...................................................
          :                      SETUP                      :
          :.................................................:
          :   optimization level            normal          :
          :   max. optcycles                   200          :
          :   ANC micro-cycles                  20          :
          :   degrees of freedom               174          :
          :.................................................:
          :   RF solver                   davidson          :
          :   write xtbopt.log                true          :
          :   linear?                        false          :
          :   energy convergence         0.5000000E-05 Eh   :
          :   grad. convergence          0.1000000E-02 Eh/α :
          :   maximium RF displ.         1.0000000          :
          :   Hlow (freq-cutoff)         0.1000000E-01      :
          :   Hmax (freq-cutoff)         5.0000000          :
          :   S6 in model hess.         20.0000000          :
          ...................................................

generating ANC from model Hessian ...
Using Lindh-Hessian (1995)
 Shifting diagonal of input Hessian by    9.8910609264958229E-003
 Lowest  eigenvalues of input Hessian
    0.000000    0.000000    0.000000    0.000000    0.000000    0.000000
    0.010000    0.010029    0.010166    0.011379    0.011605    0.012618
    0.013123    0.013222    0.013951    0.015061    0.015265    0.015515
 Highest eigenvalues
    1.733836    1.830026    1.933796    2.093265    8.764790    9.390246


........................................................................
.............................. CYCLE    1 ..............................
........................................................................
   1    -83.3865092 -0.833865E+02  0.151E-04    2.81       0.0  T
   2    -83.3865092 -0.774875E-09  0.108E-04    2.81     119.9  T
   3    -83.3865092 -0.522078E-09  0.460E-05    2.81     280.4  T
     SCC iter.                  ...        0 min,  0.008 sec
     gradient                   ...        0 min,  0.028 sec
 * total energy  :   -82.2064467 Eh     change       -0.1033897E-08 Eh
   gradient norm :     1.1875386 Eh/α   predicted     0.0000000E+00 (-100.00%)
   displ. norm   :     0.2365154 α      lambda       -0.2718413E+00
   maximum displ.:     0.2244015 α      in ANC's #174, #163, #115, ...

........................................................................
.............................. CYCLE    2 ..............................
........................................................................
   1    -83.3689757 -0.833690E+02  0.291E-01    2.47       0.0  T
   2    -83.3695289 -0.553228E-03  0.214E-01    2.47       1.0  T
   3    -83.3700823 -0.553426E-03  0.118E-01    2.47       1.0  T
   4    -83.3701878 -0.105452E-03  0.512E-02    2.48       1.0  T
   5    -83.3703312 -0.143398E-03  0.665E-03    2.47       1.9  T
   6    -83.3703322 -0.104389E-05  0.407E-03    2.47       3.2  T
   7    -83.3703327 -0.460377E-06  0.203E-03    2.47       6.4  T
   8    -83.3703328 -0.131960E-06  0.509E-04    2.47      25.3  T
   9    -83.3703328 -0.395822E-08  0.143E-04    2.47      90.0  T
     SCC iter.                  ...        0 min,  0.024 sec
     gradient                   ...        0 min,  0.028 sec
 * total energy  :   -82.2662331 Eh     change       -0.5978641E-01 Eh
   gradient norm :     0.6785042 Eh/α   predicted    -0.1435644E+00 ( 140.13%)
   displ. norm   :     0.1010257 α      lambda       -0.5605196E-01
   maximum displ.:     0.0808973 α      in ANC's #174, #36, #41, ...

........................................................................
.............................. CYCLE    3 ..............................
........................................................................
   1    -83.3762004 -0.833762E+02  0.121E-01    2.57       0.0  T
   2    -83.3762835 -0.831273E-04  0.932E-02    2.58       1.0  T
   3    -83.3764101 -0.126577E-03  0.498E-02    2.57       1.0  T
   4    -83.3764284 -0.182943E-04  0.189E-02    2.57       1.0  T
   5    -83.3764474 -0.190199E-04  0.234E-03    2.57       5.5  T
   6    -83.3764475 -0.827064E-07  0.131E-03    2.57       9.9  T
   7    -83.3764475 -0.112334E-07  0.693E-04    2.57      18.6  T
   8    -83.3764475 -0.220432E-07  0.199E-04    2.57      65.0  T
     SCC iter.                  ...        0 min,  0.022 sec
     gradient                   ...        0 min,  0.028 sec
 * total energy  :   -82.2947139 Eh     change       -0.2848081E-01 Eh
   gradient norm :     0.0174297 Eh/α   predicted    -0.2831196E-01 (  -0.59%)
   displ. norm   :     0.1049847 α      lambda       -0.6695105E-03
   maximum displ.:     0.0345851 α      in ANC's #36, #28, #17, ...

........................................................................
.............................. CYCLE    4 ..............................
........................................................................
   1    -83.3765610 -0.833766E+02  0.467E-02    2.56       0.0  T
   2    -83.3765625 -0.151844E-05  0.283E-02    2.56       1.0  T
   3    -83.3765469  0.155656E-04  0.172E-02    2.56       1.0  T
   4    -83.3765643 -0.173529E-04  0.247E-03    2.56       5.2  T
   5    -83.3765646 -0.340916E-06  0.735E-04    2.56      17.6  T
   6    -83.3765646 -0.115583E-07  0.379E-04    2.56      34.1  T
     SCC iter.                  ...        0 min,  0.016 sec
     gradient                   ...        0 min,  0.028 sec
 * total energy  :   -82.2950797 Eh     change       -0.3657756E-03 Eh
   gradient norm :     0.0090390 Eh/α   predicted    -0.2697952E-03 ( -26.24%)
   displ. norm   :     0.1009631 α      lambda       -0.5204673E-03
   maximum displ.:     0.0435037 α      in ANC's #6, #17, #28, ...

........................................................................
.............................. CYCLE    5 ..............................
........................................................................
   1    -83.3764216 -0.833764E+02  0.379E-02    2.55       0.0  T
   2    -83.3764229 -0.125066E-05  0.228E-02    2.55       1.0  T
   3    -83.3764131  0.978879E-05  0.141E-02    2.55       1.0  T
   4    -83.3764241 -0.110296E-04  0.227E-03    2.55       5.7  T
   5    -83.3764244 -0.300547E-06  0.629E-04    2.55      20.5  T
   6    -83.3764244 -0.109513E-07  0.294E-04    2.55      43.9  T
     SCC iter.                  ...        0 min,  0.016 sec
     gradient                   ...        0 min,  0.028 sec
 * total energy  :   -82.2951972 Eh     change       -0.1175215E-03 Eh
   gradient norm :     0.0069535 Eh/α   predicted    -0.1093628E-03 (  -6.94%)
   displ. norm   :     0.0493456 α      lambda       -0.1198423E-03
   maximum displ.:     0.0269819 α      in ANC's #6, #1, #17, ...

........................................................................
.............................. CYCLE    6 ..............................
........................................................................
   1    -83.3764965 -0.833765E+02  0.135E-02    2.55       0.0  T
   2    -83.3764966 -0.103840E-06  0.810E-03    2.55       1.6  T
   3    -83.3764963  0.346476E-06  0.258E-03    2.55       5.0  T
   4    -83.3764966 -0.376911E-06  0.567E-04    2.55      22.8  T
   5    -83.3764967 -0.166162E-07  0.194E-04    2.55      66.6  T
     SCC iter.                  ...        0 min,  0.014 sec
     gradient                   ...        0 min,  0.028 sec
 * total energy  :   -82.2952190 Eh     change       -0.2179609E-04 Eh
   gradient norm :     0.0047147 Eh/α   predicted    -0.1788729E-04 ( -17.93%)
   displ. norm   :     0.0580165 α      lambda       -0.1029881E-03
   maximum displ.:     0.0320238 α      in ANC's #6, #1, #4, ...

........................................................................
.............................. CYCLE    7 ..............................
........................................................................
   1    -83.3765958 -0.833766E+02  0.140E-02    2.55       0.0  T
   2    -83.3765958 -0.117227E-07  0.859E-03    2.55       1.5  T
   3    -83.3765951  0.671604E-06  0.342E-03    2.55       3.8  T
   4    -83.3765958 -0.718066E-06  0.293E-04    2.55      44.1  T
   5    -83.3765958 -0.194147E-08  0.161E-04    2.55      80.3  T
     SCC iter.                  ...        0 min,  0.014 sec
     gradient                   ...        0 min,  0.028 sec
 * total energy  :   -82.2952365 Eh     change       -0.1754398E-04 Eh
   gradient norm :     0.0027486 Eh/α   predicted    -0.1183545E-04 ( -32.54%)
   displ. norm   :     0.0690957 α      lambda       -0.1219475E-03
   maximum displ.:     0.0383452 α      in ANC's #1, #6, #4, ...

........................................................................
.............................. CYCLE    8 ..............................
........................................................................
   1    -83.3765855 -0.833766E+02  0.152E-02    2.55       0.0  T
   2    -83.3765856 -0.363424E-07  0.941E-03    2.55       1.4  T
   3    -83.3765841  0.145398E-05  0.492E-03    2.55       2.6  T
   4    -83.3765857 -0.156266E-05  0.452E-04    2.55      28.6  T
   5    -83.3765857 -0.862461E-08  0.191E-04    2.55      67.5  T
   6    -83.3765857 -0.756216E-09  0.985E-05    2.55     131.1  T
     SCC iter.                  ...        0 min,  0.016 sec
     gradient                   ...        0 min,  0.028 sec
 * total energy  :   -82.2952490 Eh     change       -0.1251726E-04 Eh
   gradient norm :     0.0010893 Eh/α   predicted    -0.9634556E-05 ( -23.03%)
   displ. norm   :     0.0585304 α      lambda       -0.4702287E-04
   maximum displ.:     0.0408922 α      in ANC's #1, #6, #2, ...

........................................................................
.............................. CYCLE    9 ..............................
........................................................................
   1    -83.3764869 -0.833765E+02  0.112E-02    2.55       0.0  T
   2    -83.3764869 -0.280971E-07  0.693E-03    2.55       1.9  T
   3    -83.3764859  0.105949E-05  0.451E-03    2.55       2.9  T
   4    -83.3764871 -0.117333E-05  0.460E-04    2.55      28.0  T
   5    -83.3764871 -0.108889E-07  0.177E-04    2.55      72.8  T
   6    -83.3764871 -0.894687E-09  0.766E-05    2.55     168.6  T
     SCC iter.                  ...        0 min,  0.016 sec
     gradient                   ...        0 min,  0.028 sec
 * total energy  :   -82.2952554 Eh     change       -0.6381105E-05 Eh
   gradient norm :     0.0011825 Eh/α   predicted    -0.3221666E-05 ( -49.51%)
   displ. norm   :     0.0319933 α      lambda       -0.3286719E-04
   maximum displ.:     0.0257955 α      in ANC's #1, #2, #9, ...

........................................................................
.............................. CYCLE   10 ..............................
........................................................................
   1    -83.3764389 -0.833764E+02  0.409E-03    2.55       0.0  T
   2    -83.3764389  0.198503E-08  0.255E-03    2.55       5.1  T
   3    -83.3764388  0.135877E-06  0.200E-03    2.55       6.5  T
   4    -83.3764390 -0.183017E-06  0.166E-04    2.55      77.6  T
   5    -83.3764390 -0.107821E-08  0.864E-05    2.55     149.5  T
     SCC iter.                  ...        0 min,  0.014 sec
     gradient                   ...        0 min,  0.027 sec
 * total energy  :   -82.2952603 Eh     change       -0.4900050E-05 Eh
   gradient norm :     0.0006258 Eh/α   predicted    -0.1989229E-05 ( -59.40%)
   displ. norm   :     0.0463085 α      lambda       -0.4115429E-04
   maximum displ.:     0.0363148 α      in ANC's #1, #2, #6, ...

   *** GEOMETRY OPTIMIZATION CONVERGED AFTER 10 ITERATIONS ***

------------------------------------------------------------------------
 total energy gain   :        -0.0888137 Eh      -55.7314 kcal/mol
 total RMSD          :         0.0608362 a0        0.0322 Å
 total power (kW/mol):       -23.3180212 (step) -424.7431 (real)
------------------------------------------------------------------------

 ANCopt (total)                0 d,  0 h,  0 min,  0.549 sec
 optimizer setup                ...        0 min,  0.000 sec (  0.013%)
 model hessian                  ...        0 min,  0.032 sec (  5.890%)
 ANC generation                 ...        0 min,  0.003 sec (  0.511%)
 coordinate transformation      ...        0 min,  0.000 sec (  0.028%)
 single point calculation       ...        0 min,  0.509 sec ( 92.786%)
 optimization log               ...        0 min,  0.002 sec (  0.386%)
 hessian update                 ...        0 min,  0.000 sec (  0.042%)
 rational function              ...        0 min,  0.001 sec (  0.266%)

================
 final structure:
================
60
 xtb: 6.5.0 (homebrew)
C            3.39375299250056      -37.85538015068026       15.98048450010148
C            3.68246307136783      -38.17632828101981       17.44500082504387
O            3.23458526942713      -37.09863697870253       18.26716841211201
C            2.87129884918116      -39.41103512115357       17.85771029304204
C            5.20746950234355      -38.29367259122857       17.81108957161274
C            5.72287034991050      -39.72194883826811       17.97260897377189
C            6.11796928484481      -37.53861968168707       16.83506812492636
O            5.29219914641100      -37.61750581520811       19.06679173623288
B            4.15841371206959      -36.88164521092438       19.25120870812893
C            3.92851853541446      -35.90826016018379       20.45658490124508
C            4.94321181125504      -35.76887198652741       21.37572237256738
C            5.00552398263198      -34.73852715616531       22.37908726496790
H            5.94367796745308      -34.72958842326332       22.92736061856874
C            3.83015596567223      -34.16915350937462       23.12929410571088
H            4.07793936199702      -33.79134200271547       24.11362001457170
C            2.48320675986283      -34.78298615247357       23.10164313228990
B            1.71216002619738      -34.85255774485607       24.45683886259551
O            2.20715679893785      -34.38630658547255       25.64421606195584
C            1.33600654551020      -34.79794913214680       26.69691772403596
C            1.17920976875341      -33.66210437377564       27.70513933339458
C            2.00806379278303      -35.99239796301811       27.38634011206083
C            0.02012203913601      -35.19499520411487       25.93430158870854
C           -1.00324496874381      -34.05379337294251       25.87607118634860
C           -0.66774395116990      -36.45708835226954       26.45030842978921
O            0.47445164702848      -35.41463567360631       24.59952758811858
C            1.93817611653722      -35.30756717835792       22.00212343471770
C            2.53185367337301      -35.39157377185553       20.64849435033120
H            1.84433612260071      -35.86281777619211       19.95090313136486
C            3.25303495273277      -34.25580103787392       20.02425437073429
C            3.91945629760973      -33.25356893895034       20.66703807828327
C            4.44686845692044      -33.39207358255186       22.00380379992900
H            5.03618942581517      -32.53560124109024       22.32083740835240
H            2.31720410074727      -37.80797212452330       15.83618023667873
H            3.80032462280730      -38.63270340496004       15.33928598873341
H            3.81342830448951      -36.89563958398745       15.69709610506116
H            1.81480882574918      -39.19018192227349       17.72309866144885
H            3.03576322037635      -39.63393148956921       18.90894493879678
H            3.13193748157500      -40.27372232391519       17.25232306667636
H            5.58912325772612      -40.27783468336823       17.04871507935672
H            5.21231343411523      -40.23321969011868       18.78210756028322
H            6.78253778344002      -39.68734195341050       18.21283417714755
H            6.13476662502755      -38.02026301398658       15.86204901027641
H            7.12619097280795      -37.52777894543276       17.24253620782654
H            5.78777900499990      -36.50820093925711       16.73092752788975
H            5.87992006242669      -36.25159099976720       21.13212076276124
H            2.13838865303925      -33.48122737225663       28.18397898872477
H            0.45220961519415      -33.93358289317214       28.46583440480401
H            0.86847454203181      -32.74396773403091       27.21736848848901
H            2.98628031382376      -35.67896972261979       27.74386602466512
H            2.15460488387465      -36.80158124230420       26.67528157455272
H            1.41927650144235      -36.34305977712314       28.22859545107302
H           -1.42765866613580      -33.85606248274308       26.85584745169915
H           -1.80119939916264      -34.34116184276917       25.19529943517812
H           -0.53857046648792      -33.15192650803356       25.48571590533108
H           -0.94057971418232      -36.33691024565577       27.49527447880623
H           -0.02696515641290      -37.32576858220352       26.33952278548867
H           -1.56987839473950      -36.62836896846657       25.86831946853063
H            0.95328138114638      -35.74450711914236       22.09227658948072
H            3.08015906799619      -34.13604240700657       18.96087060349693
H            4.36039583591947      -32.46919803925238       20.06594001112900

 Bond Distances (Angstroems)
 ---------------------------
C1-C2=1.5268         C1-H33=1.0872        C1-H34=1.0866        C1-H35=1.0851        C2-C1=1.5268         C2-O3=1.4276         
C2-C4=1.5339         C2-C5=1.5727         O3-C2=1.4276         O3-B9=1.3671         C4-C2=1.5339         C4-H36=1.0877        
C4-H37=1.0871        C4-H38=1.0857        C5-C2=1.5727         C5-C6=1.5270         C5-C7=1.5335         C5-O8=1.4287         
C6-C5=1.5270         C6-H39=1.0865        C6-H40=1.0851        C6-H41=1.0871        C7-C5=1.5335         C7-H42=1.0858        
C7-H43=1.0875        C7-H44=1.0870        O8-C5=1.4287         O8-B9=1.3642         B9-O3=1.3671         B9-O8=1.3642         
B9-C10=1.5663        C10-B9=1.5663        C10-C11=1.3762       C10-C27=1.5015       C10-C29=1.8368       C11-C10=1.3762       
C11-C12=1.4395       C11-H45=1.0816       C12-C11=1.4395       C12-H13=1.0867       C12-C14=1.5061       C12-C31=1.5053       
H13-C12=1.0867       C14-C12=1.5061       C14-H15=1.0831       C14-C16=1.4805       C14-C31=1.5003       H15-C14=1.0831       
C16-C14=1.4805       C16-B17=1.5607       C16-C26=1.3346       B17-C16=1.5607       B17-O18=1.3683       B17-O25=1.3668       
O18-B17=1.3683       O18-C19=1.4271       C19-O18=1.4271       C19-C20=1.5268       C19-C21=1.5342       C19-C22=1.5719       
C20-C19=1.5268       C20-H46=1.0872       C20-H47=1.0867       C20-H48=1.0851       C21-C19=1.5342       C21-H49=1.0876       
C21-H50=1.0871       C21-H51=1.0858       C22-C19=1.5719       C22-C23=1.5340       C22-C24=1.5272       C22-O25=1.4270       
C23-C22=1.5340       C23-H52=1.0859       C23-H53=1.0875       C23-H54=1.0870       C24-C22=1.5272       C24-H55=1.0867       
C24-H56=1.0851       C24-H57=1.0871       O25-B17=1.3668       O25-C22=1.4270       C26-C16=1.3346       C26-C27=1.4805       
C26-H58=1.0812       C27-C10=1.5015       C27-C26=1.4805       C27-H28=1.0869       C27-C29=1.4832       H28-C27=1.0869       
C29-C10=1.8368       C29-C27=1.4832       C29-C30=1.3645       C29-H59=1.0840       C30-C29=1.3645       C30-C31=1.4437       
C30-H60=1.0821       C31-C12=1.5053       C31-C14=1.5003       C31-C30=1.4437       C31-H32=1.0869       H32-C31=1.0869       
H33-C1=1.0872        H34-C1=1.0866        H35-C1=1.0851        H36-C4=1.0877        H37-C4=1.0871        H38-C4=1.0857        
H39-C6=1.0865        H40-C6=1.0851        H41-C6=1.0871        H42-C7=1.0858        H43-C7=1.0875        H44-C7=1.0870        
H45-C11=1.0816       H46-C20=1.0872       H47-C20=1.0867       H48-C20=1.0851       H49-C21=1.0876       H50-C21=1.0871       
H51-C21=1.0858       H52-C23=1.0859       H53-C23=1.0875       H54-C23=1.0870       H55-C24=1.0867       H56-C24=1.0851       
H57-C24=1.0871       H58-C26=1.0812       H59-C29=1.0840       H60-C30=1.0821       
 C  H  Rav=1.0859 sigma=0.0017  Rmin=1.0812  Rmax=1.0877    32
 C  B  Rav=1.5635 sigma=0.0028  Rmin=1.5607  Rmax=1.5663     2
 C  C  Rav=1.5061 sigma=0.0931  Rmin=1.3346  Rmax=1.8368    23
 O  B  Rav=1.3666 sigma=0.0015  Rmin=1.3642  Rmax=1.3683     4
 O  C  Rav=1.4276 sigma=0.0007  Rmin=1.4270  Rmax=1.4287     4

 selected bond angles (degree)
 --------------------
H33-C1-C2=108.89               H34-C1-C2=110.18               H34-C1-H33=108.87              H35-C1-C2=111.30               
H35-C1-H33=108.04              H35-C1-H34=109.51              O3-C2-C1=109.54                C4-C2-C1=109.10                
C4-C2-O3=106.67                C5-C2-C1=114.98                C5-C2-O3=103.09                C5-C2-C4=112.96                
B9-O3-C2=108.81                H36-C4-C2=108.48               H37-C4-C2=110.20               H37-C4-H36=107.95              
H38-C4-C2=111.26               H38-C4-H36=109.00              H38-C4-H37=109.88              C6-C5-C2=114.94                
C7-C5-C2=113.01                C7-C5-C6=109.11                O8-C5-C2=103.11                O8-C5-C6=109.25                
O8-C5-C7=106.93                H39-C6-C5=110.31               H40-C6-C5=111.15               H40-C6-H39=109.60              
H41-C6-C5=108.82               H41-C6-H39=108.92              H41-C6-H40=107.99              H42-C7-C5=111.17               
H43-C7-C5=108.47               H43-C7-H42=109.02              H44-C7-C5=110.33               H44-C7-H42=109.84              
H44-C7-H43=107.94              B9-O8-C5=108.95                O8-B9-O3=112.25                C10-B9-O3=123.60               
C10-B9-O8=124.14               C11-C10-B9=117.95              C27-C10-B9=116.66              C27-C10-C11=124.45             
C29-C10-B9=115.59              C29-C10-C11=109.71             C29-C10-C27= 51.57             

 selected dihedral angles (degree)
 ---------------------------------
O3-C2-C1-H33=294.90           O3-C2-C1-H34=175.57           O3-C2-C1-H35= 53.89           C4-C2-C1-H33= 51.32           
C4-C2-C1-H34=291.99           C4-C2-C1-H35=170.31           C5-C2-C1-H33=179.40           C5-C2-C1-H34= 60.07           
C5-C2-C1-H35=298.40           B9-O3-C2-C1=220.63            B9-O3-C2-C4=102.68            B9-O3-C2-C5=343.49            
H36-C4-C2-C1=300.05           H36-C4-C2-O3= 58.29           H36-C4-C2-C5=170.84           H37-C4-C2-C1=182.07           
H37-C4-C2-O3=300.30           H37-C4-C2-C5= 52.86           H38-C4-C2-C1= 59.94           H38-C4-C2-O3=178.17           
H38-C4-C2-C5=290.73           C6-C5-C2-C1=257.08            C6-C5-C2-O3=137.93            C6-C5-C2-C4= 23.20            
C7-C5-C2-C1= 23.22            C7-C5-C2-O3=264.07            C7-C5-C2-C4=149.34            O8-C5-C2-C1=138.29            
O8-C5-C2-O3= 19.14            O8-C5-C2-C4=264.41            H39-C6-C5-C2= 59.98           H39-C6-C5-C7=291.85           
H39-C6-C5-O8=175.28           H40-C6-C5-C2=298.20           H40-C6-C5-C7=170.08           H40-C6-C5-O8= 53.50           
H41-C6-C5-C2=179.40           H41-C6-C5-C7= 51.28           H41-C6-C5-O8=294.70           H42-C7-C5-C2=290.57           
H42-C7-C5-C6= 59.77           H42-C7-C5-O8=177.82           H43-C7-C5-C2=170.72           H43-C7-C5-C6=299.92           
H43-C7-C5-O8= 57.97           H44-C7-C5-C2= 52.68           H44-C7-C5-C6=181.88           H44-C7-C5-O8=299.93           
B9-O8-C5-C2=344.67            B9-O8-C5-C6=221.99            B9-O8-C5-C7=104.03            O8-B9-O3-C2=  7.85            
C10-B9-O3-C2=188.39           O3-B9-O8-C5=  5.78            C10-B9-O8-C5=185.24           C11-C10-B9-O3=180.55          
C11-C10-B9-O8=  1.16          C27-C10-B9-O3= 11.14          C27-C10-B9-O8=191.75          C29-C10-B9-O3=313.19          
C29-C10-B9-O8=133.80          
           -------------------------------------------------
          |                Final Singlepoint                |
           -------------------------------------------------

          ...................................................
          :                      SETUP                      :
          :.................................................:
          :  # basis functions                 144          :
          :  # atomic orbitals                 144          :
          :  # shells                           88          :
          :  # electrons                       150          :
          :  max. iterations                   250          :
          :  Hamiltonian                  GFN2-xTB          :
          :  restarted?                      false          :
          :  GBSA solvation                  false          :
          :  PC potential                    false          :
          :  electronic temp.          300.0000000     K    :
          :  accuracy                    1.0000000          :
          :  -> integral cutoff          0.2500000E+02      :
          :  -> integral neglect         0.1000000E-07      :
          :  -> SCF convergence          0.1000000E-05 Eh   :
          :  -> wf. convergence          0.1000000E-03 e    :
          :  Broyden damping             0.4000000          :
          ...................................................

 iter      E             dE          RMSdq      gap      omega  full diag
   1    -83.3764390 -0.833764E+02  0.405E-05    2.55       0.0  T
   2    -83.3764390  0.298428E-12  0.327E-05    2.55     395.2  T
   3    -83.3764390 -0.328981E-10  0.185E-05    2.55     699.3  T

   *** convergence criteria satisfied after 3 iterations ***

         #    Occupation            Energy/Eh            Energy/eV
      -------------------------------------------------------------
         1        2.0000           -0.6919719             -18.8295
       ...           ...                  ...                  ...
        69        2.0000           -0.4078428             -11.0980
        70        2.0000           -0.4006564             -10.9024
        71        2.0000           -0.3992548             -10.8643
        72        2.0000           -0.3957208             -10.7681
        73        2.0000           -0.3777265             -10.2785
        74        2.0000           -0.3761081             -10.2344
        75        2.0000           -0.3187853              -8.6746 (HOMO)
        76                         -0.2251208              -6.1259 (LUMO)
        77                         -0.2186730              -5.9504
        78                         -0.1599290              -4.3519
        79                         -0.1018836              -2.7724
        80                         -0.0689995              -1.8776
       ...                                ...                  ...
       144                          0.6982048              18.9991
      -------------------------------------------------------------
                  HL-Gap            0.0936644 Eh            2.5487 eV
             Fermi-level           -0.2719531 Eh           -7.4002 eV

 SCC (total)                   0 d,  0 h,  0 min,  0.043 sec
 SCC setup                      ...        0 min,  0.000 sec (  0.527%)
 Dispersion                     ...        0 min,  0.000 sec (  0.866%)
 classical contributions        ...        0 min,  0.000 sec (  0.403%)
 integral evaluation            ...        0 min,  0.006 sec ( 13.946%)
 iterations                     ...        0 min,  0.008 sec ( 19.544%)
 molecular gradient             ...        0 min,  0.027 sec ( 63.933%)
 printout                       ...        0 min,  0.000 sec (  0.770%)

         :::::::::::::::::::::::::::::::::::::::::::::::::::::
         ::                     SUMMARY                     ::
         :::::::::::::::::::::::::::::::::::::::::::::::::::::
         :: total energy             -82.295260323688 Eh    ::
         :: gradient norm              0.000625598810 Eh/a0 ::
         :: HOMO-LUMO gap              2.548738465020 eV    ::
         ::.................................................::
         :: SCC energy               -83.376438957130 Eh    ::
         :: -> isotropic ES            0.147952272608 Eh    ::
         :: -> anisotropic ES          0.011108445359 Eh    ::
         :: -> anisotropic XC          0.025752172926 Eh    ::
         :: -> dispersion             -0.060854412083 Eh    ::
         :: repulsion energy           1.080242147930 Eh    ::
         :: add. restraining           0.000286352564 Eh    ::
         :: total charge               0.000000000000 e     ::
         :::::::::::::::::::::::::::::::::::::::::::::::::::::

           -------------------------------------------------
          |                Property Printout                |
           -------------------------------------------------

    * Orbital Energies and Occupations

         #    Occupation            Energy/Eh            Energy/eV
      -------------------------------------------------------------
         1        2.0000           -0.6919719             -18.8295
       ...           ...                  ...                  ...
        63        2.0000           -0.4377525             -11.9119
        64        2.0000           -0.4338608             -11.8060
        65        2.0000           -0.4281016             -11.6492
        66        2.0000           -0.4227571             -11.5038
        67        2.0000           -0.4186996             -11.3934
        68        2.0000           -0.4134078             -11.2494
        69        2.0000           -0.4078428             -11.0980
        70        2.0000           -0.4006564             -10.9024
        71        2.0000           -0.3992548             -10.8643
        72        2.0000           -0.3957208             -10.7681
        73        2.0000           -0.3777265             -10.2785
        74        2.0000           -0.3761081             -10.2344
        75        2.0000           -0.3187853              -8.6746 (HOMO)
        76                         -0.2251208              -6.1259 (LUMO)
        77                         -0.2186730              -5.9504
        78                         -0.1599290              -4.3519
        79                         -0.1018836              -2.7724
        80                         -0.0689995              -1.8776
        81                          0.0040340               0.1098
        82                          0.0101841               0.2771
        83                          0.0167345               0.4554
        84                          0.0255854               0.6962
        85                          0.0300594               0.8180
        86                          0.0550764               1.4987
       ...                                ...                  ...
       144                          0.6982048              18.9991
      -------------------------------------------------------------
                  HL-Gap            0.0936644 Eh            2.5487 eV
             Fermi-level           -0.2719531 Eh           -7.4002 eV

     #   Z          covCN         q      C6AA      α(0)
     1   6 C        3.755    -0.117    22.799     6.808
     2   6 C        3.859     0.129    18.450     6.109
     3   8 O        1.638    -0.373    20.348     6.089
     4   6 C        3.755    -0.116    22.786     6.806
     5   6 C        3.859     0.129    18.453     6.109
     6   6 C        3.755    -0.118    22.816     6.811
     7   6 C        3.755    -0.116    22.780     6.805
     8   8 O        1.638    -0.370    20.293     6.081
     9   5 B        2.659     0.437    15.505     6.629
    10   6 C        3.654    -0.058    21.942     6.726
    11   6 C        2.896    -0.062    29.537     8.911
    12   6 C        3.865    -0.002    20.579     6.451
    13   1 H        0.925     0.028     2.612     2.527
    14   6 C        3.864    -0.028    21.032     6.522
    15   1 H        0.925     0.040     2.452     2.449
    16   6 C        2.863    -0.083    30.060     8.987
    17   5 B        2.663     0.432    15.547     6.636
    18   8 O        1.638    -0.373    20.341     6.088
    19   6 C        3.860     0.129    18.454     6.109
    20   6 C        3.755    -0.117    22.798     6.808
    21   6 C        3.755    -0.116    22.778     6.805
    22   6 C        3.860     0.129    18.454     6.109
    23   6 C        3.755    -0.116    22.784     6.806
    24   6 C        3.755    -0.117    22.804     6.809
    25   8 O        1.638    -0.371    20.307     6.083
    26   6 C        2.897    -0.030    28.751     8.791
    27   6 C        3.865    -0.018    20.852     6.494
    28   1 H        0.925     0.043     2.410     2.428
    29   6 C        3.682    -0.006    20.898     6.546
    30   6 C        2.891    -0.071    29.773     8.946
    31   6 C        3.868    -0.001    20.552     6.447
    32   1 H        0.925     0.028     2.610     2.526
    33   1 H        0.925     0.055     2.258     2.350
    34   1 H        0.925     0.040     2.444     2.445
    35   1 H        0.925     0.052     2.298     2.370
    36   1 H        0.925     0.053     2.284     2.363
    37   1 H        0.925     0.044     2.394     2.420
    38   1 H        0.925     0.043     2.408     2.427
    39   1 H        0.925     0.041     2.437     2.441
    40   1 H        0.925     0.053     2.286     2.364
    41   1 H        0.925     0.055     2.254     2.348
    42   1 H        0.925     0.044     2.402     2.424
    43   1 H        0.925     0.053     2.280     2.361
    44   1 H        0.925     0.044     2.400     2.423
    45   1 H        0.925     0.030     2.592     2.517
    46   1 H        0.925     0.054     2.270     2.356
    47   1 H        0.925     0.040     2.455     2.450
    48   1 H        0.925     0.052     2.294     2.369
    49   1 H        0.925     0.052     2.296     2.370
    50   1 H        0.925     0.044     2.400     2.423
    51   1 H        0.925     0.042     2.420     2.433
    52   1 H        0.925     0.042     2.417     2.431
    53   1 H        0.925     0.052     2.290     2.367
    54   1 H        0.925     0.044     2.396     2.421
    55   1 H        0.925     0.040     2.454     2.450
    56   1 H        0.925     0.052     2.295     2.369
    57   1 H        0.925     0.054     2.266     2.354
    58   1 H        0.925     0.037     2.494     2.470
    59   1 H        0.925     0.029     2.595     2.519
    60   1 H        0.925     0.017     2.781     2.608

 Mol. C6AA /au·bohr⁶  :      32284.067826
 Mol. C8AA /au·bohr⁸  :     745959.421285
 Mol. α(0) /au        :        268.892807


Wiberg/Mayer (AO) data.
largest (>0.10) Wiberg bond orders for each atom

 ---------------------------------------------------------------------------
     #   Z sym  total        # sym  WBO       # sym  WBO       # sym  WBO
 ---------------------------------------------------------------------------
     1   6 C    3.994 --     2 C    0.997    34 H    0.984    33 H    0.982
                            35 H    0.982
     2   6 C    3.942 --     1 C    0.997     4 C    0.991     3 O    0.951
                             5 C    0.936
     3   8 O    2.232 --     9 B    1.130     2 C    0.951
     4   6 C    3.994 --     2 C    0.991    38 H    0.984    37 H    0.984
                            36 H    0.983
     5   6 C    3.941 --     6 C    0.997     7 C    0.991     8 O    0.950
                             2 C    0.936
     6   6 C    3.994 --     5 C    0.997    39 H    0.984    41 H    0.982
                            40 H    0.982
     7   6 C    3.995 --     5 C    0.991    42 H    0.984    44 H    0.984
                            43 H    0.983
     8   8 O    2.239 --     9 B    1.138     5 C    0.950
     9   5 B    3.378 --     8 O    1.138     3 O    1.130    10 C    0.992
    10   6 C    3.949 --    11 C    1.529     9 B    0.992    27 C    0.907
                            29 C    0.351
    11   6 C    3.980 --    10 C    1.529    12 C    1.175    45 H    0.966
                            30 C    0.172
    12   6 C    3.956 --    11 C    1.175    13 H    0.970    14 C    0.895
                            31 C    0.798
    13   1 H    0.999 --    12 C    0.970
    14   6 C    3.933 --    16 C    1.031    15 H    0.969    31 C    0.910
                            12 C    0.895
    15   1 H    0.998 --    14 C    0.969
    16   6 C    3.979 --    26 C    1.821    14 C    1.031    17 B    0.998
    17   5 B    3.375 --    25 O    1.130    18 O    1.127    16 C    0.998
    18   8 O    2.231 --    17 B    1.127    19 C    0.953
    19   6 C    3.943 --    20 C    0.997    21 C    0.991    18 O    0.953
                            22 C    0.937
    20   6 C    3.994 --    19 C    0.997    47 H    0.985    46 H    0.983
                            48 H    0.982
    21   6 C    3.994 --    19 C    0.991    51 H    0.984    50 H    0.984
                            49 H    0.983
    22   6 C    3.943 --    24 C    0.996    23 C    0.991    25 O    0.953
                            19 C    0.937
    23   6 C    3.995 --    22 C    0.991    52 H    0.984    54 H    0.984
                            53 H    0.983
    24   6 C    3.994 --    22 C    0.996    55 H    0.985    57 H    0.983
                            56 H    0.982
    25   8 O    2.234 --    17 B    1.130    22 C    0.953
    26   6 C    3.988 --    16 C    1.821    27 C    1.025    58 H    0.966
    27   6 C    3.970 --    26 C    1.025    28 H    0.968    29 C    0.941
                            10 C    0.907
    28   1 H    0.998 --    27 C    0.968
    29   6 C    3.964 --    30 C    1.572    59 H    0.970    27 C    0.941
                            10 C    0.351
    30   6 C    3.970 --    29 C    1.572    31 C    1.156    60 H    0.967
                            11 C    0.172
    31   6 C    3.953 --    30 C    1.156    32 H    0.970    14 C    0.910
                            12 C    0.798
    32   1 H    0.999 --    31 C    0.970
    33   1 H    0.997 --     1 C    0.982
    34   1 H    0.998 --     1 C    0.984
    35   1 H    0.997 --     1 C    0.982
    36   1 H    0.997 --     4 C    0.983
    37   1 H    0.998 --     4 C    0.984
    38   1 H    0.998 --     4 C    0.984
    39   1 H    0.998 --     6 C    0.984
    40   1 H    0.997 --     6 C    0.982
    41   1 H    0.997 --     6 C    0.982
    42   1 H    0.998 --     7 C    0.984
    43   1 H    0.997 --     7 C    0.983
    44   1 H    0.998 --     7 C    0.984
    45   1 H    0.999 --    11 C    0.966
    46   1 H    0.997 --    20 C    0.983
    47   1 H    0.998 --    20 C    0.985
    48   1 H    0.997 --    20 C    0.982
    49   1 H    0.997 --    21 C    0.983
    50   1 H    0.998 --    21 C    0.984
    51   1 H    0.998 --    21 C    0.984
    52   1 H    0.998 --    23 C    0.984
    53   1 H    0.997 --    23 C    0.983
    54   1 H    0.998 --    23 C    0.984
    55   1 H    0.998 --    24 C    0.985
    56   1 H    0.997 --    24 C    0.982
    57   1 H    0.997 --    24 C    0.983
    58   1 H    0.999 --    26 C    0.966
    59   1 H    0.999 --    29 C    0.970
    60   1 H    0.999 --    30 C    0.967
 ---------------------------------------------------------------------------

Topologies differ in total number of bonds
Writing topology from bond orders to xtbtopo.mol

molecular dipole:
                 x           y           z       tot (Debye)
 q only:       -0.219      -0.607      -0.014
   full:       -0.110      -0.702      -0.078       1.816
molecular quadrupole (traceless):
                xx          xy          yy          xz          yz          zz
 q only:      -52.186      14.420      77.036     -26.035     -25.728     -24.850
  q+dip:      -54.289       5.140      88.366     -19.876     -22.959     -34.076
   full:      -55.263       3.888      90.139     -21.148     -24.204     -34.876

           -------------------------------------------------
          |                Geometry Summary                 |
           -------------------------------------------------

      molecular mass/u    :      382.1099696
   center of mass at/Å    :        2.9505391     -35.9155890      21.8294577
  moments of inertia/u·Å² :        0.1242593E+04   0.6707719E+04   0.7081336E+04
rotational constants/cm⁻¹ :        0.1356650E-01   0.2513169E-02   0.2380572E-02

 * 62 selected distances

     #   Z          #   Z                                           value/Å
     1   6 C        2   6 C                                       1.5268169
     2   6 C        3   8 O                                       1.4275759
     2   6 C        4   6 C                                       1.5338898
     5   6 C        6   6 C                                       1.5269905
     5   6 C        7   6 C                                       1.5335361
     5   6 C        8   8 O                                       1.4286948
     3   8 O        9   5 B                                       1.3670699
     8   8 O        9   5 B                                       1.3641738
     9   5 B       10   6 C                                       1.5662894 (max)
    10   6 C       11   6 C                                       1.3761706
    11   6 C       12   6 C                                       1.4395259
    12   6 C       13   1 H                                       1.0866539
    12   6 C       14   6 C                                       1.5061497
    14   6 C       15   1 H                                       1.0830678
    14   6 C       16   6 C                                       1.4804822
    16   6 C       17   5 B                                       1.5607399
    17   5 B       18   8 O                                       1.3683117
    18   8 O       19   6 C                                       1.4270717
    19   6 C       20   6 C                                       1.5268398
    19   6 C       21   6 C                                       1.5341684
    22   6 C       23   6 C                                       1.5339533
    22   6 C       24   6 C                                       1.5271877
    17   5 B       25   8 O                                       1.3668263
    22   6 C       25   8 O                                       1.4269826
    16   6 C       26   6 C                                       1.3346114
    10   6 C       27   6 C                                       1.5014883
    26   6 C       27   6 C                                       1.4804804
    27   6 C       28   1 H                                       1.0869154
    27   6 C       29   6 C                                       1.4831582
    29   6 C       30   6 C                                       1.3644625
    12   6 C       31   6 C                                       1.5052811
    14   6 C       31   6 C                                       1.5003054
    30   6 C       31   6 C                                       1.4437071
    31   6 C       32   1 H                                       1.0869014
     1   6 C       33   1 H                                       1.0872116
     1   6 C       34   1 H                                       1.0865853
     1   6 C       35   1 H                                       1.0851445
     4   6 C       36   1 H                                       1.0876892
     4   6 C       37   1 H                                       1.0871181
     4   6 C       38   1 H                                       1.0856591
     6   6 C       39   1 H                                       1.0864978
     6   6 C       40   1 H                                       1.0850596
     6   6 C       41   1 H                                       1.0871067
     7   6 C       42   1 H                                       1.0858310
     7   6 C       43   1 H                                       1.0875012
     7   6 C       44   1 H                                       1.0870298
    11   6 C       45   1 H                                       1.0815646
    20   6 C       46   1 H                                       1.0872112
    20   6 C       47   1 H                                       1.0866863
    20   6 C       48   1 H                                       1.0851046
    21   6 C       49   1 H                                       1.0876442
    21   6 C       50   1 H                                       1.0871322
    21   6 C       51   1 H                                       1.0858308
    23   6 C       52   1 H                                       1.0859034
    23   6 C       53   1 H                                       1.0875488
    23   6 C       54   1 H                                       1.0870436
    24   6 C       55   1 H                                       1.0866630
    24   6 C       56   1 H                                       1.0851159
    24   6 C       57   1 H                                       1.0871499
    26   6 C       58   1 H                                       1.0812317 (min)
    29   6 C       59   1 H                                       1.0839804
    30   6 C       60   1 H                                       1.0821204

 * 5 distinct bonds (by element types)

   Z      Z             #   av. dist./Å        max./Å        min./Å
   1 H    6 C          32     1.0859345     1.0876892     1.0812317
   5 B    6 C           2     1.5635147     1.5662894     1.5607399
   6 C    6 C          20     1.4829603     1.5341684     1.3346114
   5 B    8 O           4     1.3665954     1.3683117     1.3641738
   6 C    8 O           4     1.4275813     1.4286948     1.4269826


optimized geometry written to: xtbopt.xyz


           -------------------------------------------------
          | TOTAL ENERGY              -82.295260323688 Eh   |
          | GRADIENT NORM               0.000625598810 Eh/α |
          | HOMO-LUMO GAP               2.548738465020 eV   |
           -------------------------------------------------

------------------------------------------------------------------------
 * finished run on 2022/07/09 at 18:33:09.152     
------------------------------------------------------------------------
 total:
 * wall-time:     0 d,  0 h,  0 min,  0.673 sec
 *  cpu-time:     0 d,  0 h,  0 min,  0.672 sec
 * ratio c/w:     0.999 speedup
 SCF:
 * wall-time:     0 d,  0 h,  0 min,  0.067 sec
 *  cpu-time:     0 d,  0 h,  0 min,  0.067 sec
 * ratio c/w:     1.000 speedup
 ANC optimizer:
 * wall-time:     0 d,  0 h,  0 min,  0.593 sec
 *  cpu-time:     0 d,  0 h,  0 min,  0.593 sec
 * ratio c/w:     0.999 speedup

