      -----------------------------------------------------------      
     |                   =====================                   |     
     |                           x T B                           |     
     |                   =====================                   |     
     |                         S. Grimme                         |     
     |          Mulliken Center for Theoretical Chemistry        |     
     |                    University of Bonn                     |     
      -----------------------------------------------------------      

   * xtb version 6.5.0 (homebrew) compiled by 'nhattrup@GPGGRP-SHANNON.CHEME.CMU.EDU' on 

   xtb is free software: you can redistribute it and/or modify it under
   the terms of the GNU Lesser General Public License as published by
   the Free Software Foundation, either version 3 of the License, or
   (at your option) any later version.
   
   xtb is distributed in the hope that it will be useful,
   but WITHOUT ANY WARRANTY; without even the implied warranty of
   MERCHANTABILITY or FITNESS FOR A PARTICULAR PURPOSE.  See the
   GNU Lesser General Public License for more details.
   
   Cite this work as:
   * C. Bannwarth, E. Caldeweyher, S. Ehlert, A. Hansen, P. Pracht,
     J. Seibert, S. Spicher, S. Grimme, WIREs Comput. Mol. Sci., 2020, 11,
     e01493. DOI: 10.1002/wcms.1493
   
   for GFN2-xTB:
   * C. Bannwarth, S. Ehlert and S. Grimme., J. Chem. Theory Comput., 2019,
     15, 1652-1671. DOI: 10.1021/acs.jctc.8b01176
   for GFN1-xTB:
   * S. Grimme, C. Bannwarth, P. Shushkov, J. Chem. Theory Comput., 2017,
     13, 1989-2009. DOI: 10.1021/acs.jctc.7b00118
   for GFN0-xTB:
   * P. Pracht, E. Caldeweyher, S. Ehlert, S. Grimme, ChemRxiv, 2019, preprint.
     DOI: 10.26434/chemrxiv.8326202.v1
   for GFN-FF:
   * S. Spicher and S. Grimme, Angew. Chem. Int. Ed., 2020, 59, 15665-15673.
     DOI: 10.1002/anie.202004239
   
   for ALPB and GBSA implicit solvation:
   * S. Ehlert, M. Stahn, S. Spicher, S. Grimme, J. Chem. Theory Comput.,
     2021, 17, 4250-4261. DOI: 10.1021/acs.jctc.1c00471
   
   for DFT-D4:
   * E. Caldeweyher, C. Bannwarth and S. Grimme, J. Chem. Phys., 2017,
     147, 034112. DOI: 10.1063/1.4993215
   * E. Caldeweyher, S. Ehlert, A. Hansen, H. Neugebauer, S. Spicher,
     C. Bannwarth and S. Grimme, J. Chem. Phys., 2019, 150, 154122.
     DOI: 10.1063/1.5090222
   * E. Caldeweyher, J.-M. Mewes, S. Ehlert and S. Grimme, Phys. Chem. Chem. Phys.
     2020, 22, 8499-8512. DOI: 10.1039/D0CP00502A
   
   for sTDA-xTB:
   * S. Grimme and C. Bannwarth, J. Chem. Phys., 2016, 145, 054103.
     DOI: 10.1063/1.4959605
   
   in the mass-spec context:
   * V. Asgeirsson, C. Bauer and S. Grimme, Chem. Sci., 2017, 8, 4879.
     DOI: 10.1039/c7sc00601b
   * J. Koopman and S. Grimme, ACS Omega 2019, 4, 12, 15120-15133.
     DOI: 10.1021/acsomega.9b02011
   
   for metadynamics refer to:
   * S. Grimme, J. Chem. Theory Comput., 2019, 155, 2847-2862
     DOI: 10.1021/acs.jctc.9b00143
   
   for SPH calculations refer to:
   * S. Spicher and S. Grimme, J. Chem. Theory Comput., 2021, 17, 1701-1714
     DOI: 10.1021/acs.jctc.0c01306
   
   with help from (in alphabetical order)
   P. Atkinson, C. Bannwarth, F. Bohle, G. Brandenburg, E. Caldeweyher
   M. Checinski, S. Dohm, S. Ehlert, S. Ehrlich, I. Gerasimov, C. Hölzer
   A. Katbashev, J. Koopman, C. Lavigne, S. Lehtola, F. März, M. Müller,
   F. Musil, H. Neugebauer, J. Pisarek, C. Plett, P. Pracht, F. Pultar,
   J. Seibert, P. Shushkov, S. Spicher, M. Stahn, M. Steiner, T. Strunk,
   J. Stückrath, T. Rose, and J. Unsleber
   
 * started run on 2022/07/09 at 18:32:54.223     

           -------------------------------------------------
          |                Calculation Setup                |
           -------------------------------------------------

          program call               : /opt/homebrew/bin/xtb bvl_bpin2_scan_0-2_xtb.xyz --chrg 0 --uhf 0 --opt --input xcontrol_bvl_bpin2_scan_0-2_xtb
          coordinate file            : bvl_bpin2_scan_0-2_xtb.xyz
          omp threads                :                     1

   ID    Z sym.   atoms
    1    6 C      1, 2, 4-7, 10-12, 14, 16, 19-24, 26, 27, 29-31
    2    8 O      3, 8, 18, 25
    3    5 B      9, 17
    4    1 H      13, 15, 28, 32-60
constraining bond 12 31 to    1.5000000 Å, actual value:    1.5017155 Å
constraining bond 10 29 to    2.2778000 Å, actual value:    2.3901239 Å

           -------------------------------------------------
          |                 G F N 2 - x T B                 |
           -------------------------------------------------

        Reference                      10.1021/acs.jctc.8b01176
      * Hamiltonian:
        H0-scaling (s, p, d)           1.850000    2.230000    2.230000
        zeta-weighting                 0.500000
      * Dispersion:
        s8                             2.700000
        a1                             0.520000
        a2                             5.000000
        s9                             5.000000
      * Repulsion:
        kExp                           1.500000    1.000000
        rExp                           1.000000
      * Coulomb:
        alpha                          2.000000
        third order                    shell-resolved
        anisotropic                    true
        a3                             3.000000
        a5                             4.000000
        cn-shift                       1.200000
        cn-exp                         4.000000
        max-rad                        5.000000


          ...................................................
          :                      SETUP                      :
          :.................................................:
          :  # basis functions                 144          :
          :  # atomic orbitals                 144          :
          :  # shells                           88          :
          :  # electrons                       150          :
          :  max. iterations                   250          :
          :  Hamiltonian                  GFN2-xTB          :
          :  restarted?                      false          :
          :  GBSA solvation                  false          :
          :  PC potential                    false          :
          :  electronic temp.          300.0000000     K    :
          :  accuracy                    1.0000000          :
          :  -> integral cutoff          0.2500000E+02      :
          :  -> integral neglect         0.1000000E-07      :
          :  -> SCF convergence          0.1000000E-05 Eh   :
          :  -> wf. convergence          0.1000000E-03 e    :
          :  Broyden damping             0.4000000          :
          ...................................................

 iter      E             dE          RMSdq      gap      omega  full diag
   1    -82.9797781 -0.829798E+02  0.467E+00    3.59       0.0  T
   2    -83.3606150 -0.380837E+00  0.287E+00    3.19       1.0  T
   3    -83.3725651 -0.119501E-01  0.137E+00    3.54       1.0  T
   4    -83.3936095 -0.210444E-01  0.450E-01    3.40       1.0  T
   5    -83.4055366 -0.119271E-01  0.196E-01    3.45       1.0  T
   6    -83.4066216 -0.108506E-02  0.116E-01    3.47       1.0  T
   7    -83.4068935 -0.271818E-03  0.293E-02    3.46       1.0  T
   8    -83.4069160 -0.225508E-04  0.104E-02    3.46       1.2  T
   9    -83.4069180 -0.197573E-05  0.532E-03    3.46       2.4  T
  10    -83.4069186 -0.594210E-06  0.256E-03    3.46       5.0  T
  11    -83.4069187 -0.165151E-06  0.554E-04    3.46      23.3  T
  12    -83.4069188 -0.991710E-08  0.233E-04    3.46      55.4  T

   *** convergence criteria satisfied after 12 iterations ***

         #    Occupation            Energy/Eh            Energy/eV
      -------------------------------------------------------------
         1        2.0000           -0.6879690             -18.7206
       ...           ...                  ...                  ...
        69        2.0000           -0.4059228             -11.0457
        70        2.0000           -0.3985102             -10.8440
        71        2.0000           -0.3967583             -10.7963
        72        2.0000           -0.3959708             -10.7749
        73        2.0000           -0.3877377             -10.5509
        74        2.0000           -0.3546646              -9.6509
        75        2.0000           -0.3487666              -9.4904 (HOMO)
        76                         -0.2217144              -6.0332 (LUMO)
        77                         -0.2136650              -5.8141
        78                         -0.1898906              -5.1672
        79                         -0.1016621              -2.7664
        80                         -0.0936159              -2.5474
       ...                                ...                  ...
       144                          0.6780531              18.4508
      -------------------------------------------------------------
                  HL-Gap            0.1270522 Eh            3.4573 eV
             Fermi-level           -0.2852405 Eh           -7.7618 eV

 SCC (total)                   0 d,  0 h,  0 min,  0.068 sec
 SCC setup                      ...        0 min,  0.000 sec (  0.348%)
 Dispersion                     ...        0 min,  0.000 sec (  0.635%)
 classical contributions        ...        0 min,  0.000 sec (  0.261%)
 integral evaluation            ...        0 min,  0.006 sec (  9.039%)
 iterations                     ...        0 min,  0.033 sec ( 48.437%)
 molecular gradient             ...        0 min,  0.028 sec ( 40.780%)
 printout                       ...        0 min,  0.000 sec (  0.492%)

         :::::::::::::::::::::::::::::::::::::::::::::::::::::
         ::                     SUMMARY                     ::
         :::::::::::::::::::::::::::::::::::::::::::::::::::::
         :: total energy             -82.231395997742 Eh    ::
         :: gradient norm              1.187805101038 Eh/a0 ::
         :: HOMO-LUMO gap              3.457266312577 eV    ::
         ::.................................................::
         :: SCC energy               -83.406918750413 Eh    ::
         :: -> isotropic ES            0.147129379900 Eh    ::
         :: -> anisotropic ES          0.012288427073 Eh    ::
         :: -> anisotropic XC          0.026701371061 Eh    ::
         :: -> dispersion             -0.061271586746 Eh    ::
         :: repulsion energy           1.084608552007 Eh    ::
         :: add. restraining           0.090130888449 Eh    ::
         :: total charge              -0.000000000000 e     ::
         :::::::::::::::::::::::::::::::::::::::::::::::::::::

      ----------------------------------------------------------- 
     |                   =====================                   |
     |                        A N C O P T                        |
     |                   =====================                   |
     |               Approximate Normal Coordinate               |
     |                Rational Function Optimizer                |
      ----------------------------------------------------------- 

          ...................................................
          :                      SETUP                      :
          :.................................................:
          :   optimization level            normal          :
          :   max. optcycles                   200          :
          :   ANC micro-cycles                  20          :
          :   degrees of freedom               174          :
          :.................................................:
          :   RF solver                   davidson          :
          :   write xtbopt.log                true          :
          :   linear?                        false          :
          :   energy convergence         0.5000000E-05 Eh   :
          :   grad. convergence          0.1000000E-02 Eh/α :
          :   maximium RF displ.         1.0000000          :
          :   Hlow (freq-cutoff)         0.1000000E-01      :
          :   Hmax (freq-cutoff)         5.0000000          :
          :   S6 in model hess.         20.0000000          :
          ...................................................

generating ANC from model Hessian ...
Using Lindh-Hessian (1995)
 Shifting diagonal of input Hessian by    9.9105710067203048E-003
 Lowest  eigenvalues of input Hessian
    0.000000    0.000000    0.000000    0.000000    0.000000    0.000000
    0.010000    0.010043    0.010154    0.011370    0.011577    0.012451
    0.013178    0.013233    0.014199    0.015047    0.015413    0.015875
 Highest eigenvalues
    1.724360    1.900421    1.901933    2.096330    8.749932    9.404932


........................................................................
.............................. CYCLE    1 ..............................
........................................................................
   1    -83.4069188 -0.834069E+02  0.918E-05    3.46       0.0  T
   2    -83.4069188 -0.480725E-09  0.551E-05    3.46     234.4  T
   3    -83.4069188 -0.165699E-09  0.212E-05    3.46     607.9  T
     SCC iter.                  ...        0 min,  0.008 sec
     gradient                   ...        0 min,  0.027 sec
 * total energy  :   -82.2313960 Eh     change       -0.1661093E-08 Eh
   gradient norm :     1.1878044 Eh/α   predicted     0.0000000E+00 (-100.00%)
   displ. norm   :     0.2404725 α      lambda       -0.2728004E+00
   maximum displ.:     0.2244826 α      in ANC's #174, #127, #112, ...

........................................................................
.............................. CYCLE    2 ..............................
........................................................................
   1    -83.3923968 -0.833924E+02  0.245E-01    3.35       0.0  T
   2    -83.3921881  0.208708E-03  0.197E-01    3.36       1.0  T
   3    -83.3931096 -0.921437E-03  0.112E-01    3.36       1.0  T
   4    -83.3932919 -0.182327E-03  0.288E-02    3.35       1.0  T
   5    -83.3933351 -0.431580E-04  0.537E-03    3.36       2.4  T
   6    -83.3933361 -0.100430E-05  0.233E-03    3.36       5.5  T
   7    -83.3933361 -0.328212E-07  0.819E-04    3.36      15.8  T
   8    -83.3933361 -0.246532E-07  0.254E-04    3.36      50.9  T
     SCC iter.                  ...        0 min,  0.022 sec
     gradient                   ...        0 min,  0.028 sec
 * total energy  :   -82.2851713 Eh     change       -0.5377534E-01 Eh
   gradient norm :     0.7338334 Eh/α   predicted    -0.1442875E+00 ( 168.32%)
   displ. norm   :     0.1054641 α      lambda       -0.6343639E-01
   maximum displ.:     0.0856690 α      in ANC's #174, #27, #28, ...

........................................................................
.............................. CYCLE    3 ..............................
........................................................................
   1    -83.4034286 -0.834034E+02  0.111E-01    3.38       0.0  T
   2    -83.4033988  0.298014E-04  0.917E-02    3.38       1.0  T
   3    -83.4036248 -0.225931E-03  0.492E-02    3.38       1.0  T
   4    -83.4036474 -0.226267E-04  0.138E-02    3.38       1.0  T
   5    -83.4036570 -0.958795E-05  0.313E-03    3.38       4.1  T
   6    -83.4036574 -0.390876E-06  0.123E-03    3.38      10.5  T
   7    -83.4036574 -0.105201E-07  0.429E-04    3.38      30.1  T
   8    -83.4036574 -0.691460E-08  0.132E-04    3.38      97.8  T
     SCC iter.                  ...        0 min,  0.022 sec
     gradient                   ...        0 min,  0.027 sec
 * total energy  :   -82.3173754 Eh     change       -0.3220405E-01 Eh
   gradient norm :     0.0132136 Eh/α   predicted    -0.3207104E-01 (  -0.41%)
   displ. norm   :     0.1632675 α      lambda       -0.7937984E-03
   maximum displ.:     0.0906747 α      in ANC's #27, #28, #30, ...

........................................................................
.............................. CYCLE    4 ..............................
........................................................................
   1    -83.4056080 -0.834056E+02  0.759E-02    3.37       0.0  T
   2    -83.4056099 -0.192540E-05  0.452E-02    3.37       1.0  T
   3    -83.4055907  0.191887E-04  0.177E-02    3.37       1.0  T
   4    -83.4056112 -0.205292E-04  0.275E-03    3.37       4.7  T
   5    -83.4056116 -0.392008E-06  0.819E-04    3.37      15.8  T
   6    -83.4056116 -0.982908E-09  0.530E-04    3.37      24.4  T
     SCC iter.                  ...        0 min,  0.016 sec
     gradient                   ...        0 min,  0.028 sec
 * total energy  :   -82.3179946 Eh     change       -0.6191623E-03 Eh
   gradient norm :     0.0075146 Eh/α   predicted    -0.4216147E-03 ( -31.91%)
   displ. norm   :     0.2206607 α      lambda       -0.6047050E-03
   maximum displ.:     0.1173369 α      in ANC's #27, #28, #6, ...

........................................................................
.............................. CYCLE    5 ..............................
........................................................................
   1    -83.4063909 -0.834064E+02  0.916E-02    3.36       0.0  T
   2    -83.4063931 -0.213093E-05  0.547E-02    3.36       1.0  T
   3    -83.4063416  0.514676E-04  0.293E-02    3.36       1.0  T
   4    -83.4063975 -0.558989E-04  0.292E-03    3.36       4.4  T
   5    -83.4063979 -0.391065E-06  0.104E-03    3.36      12.4  T
   6    -83.4063979 -0.963112E-08  0.651E-04    3.36      19.8  T
   7    -83.4063979 -0.993229E-08  0.176E-04    3.36      73.5  T
     SCC iter.                  ...        0 min,  0.019 sec
     gradient                   ...        0 min,  0.027 sec
 * total energy  :   -82.3183453 Eh     change       -0.3507497E-03 Eh
   gradient norm :     0.0071554 Eh/α   predicted    -0.3173873E-03 (  -9.51%)
   displ. norm   :     0.0853678 α      lambda       -0.8335384E-04
   maximum displ.:     0.0481509 α      in ANC's #6, #27, #13, ...

........................................................................
.............................. CYCLE    6 ..............................
........................................................................
   1    -83.4065987 -0.834066E+02  0.277E-02    3.36       0.0  T
   2    -83.4065989 -0.217088E-06  0.166E-02    3.36       1.0  T
   3    -83.4065960  0.287014E-05  0.675E-03    3.36       1.9  T
   4    -83.4065991 -0.308050E-05  0.907E-04    3.36      14.2  T
   5    -83.4065991 -0.364764E-07  0.355E-04    3.36      36.3  T
   6    -83.4065991 -0.102430E-08  0.213E-04    3.36      60.7  T
     SCC iter.                  ...        0 min,  0.016 sec
     gradient                   ...        0 min,  0.028 sec
 * total energy  :   -82.3184009 Eh     change       -0.5556269E-04 Eh
   gradient norm :     0.0061351 Eh/α   predicted    -0.4193856E-04 ( -24.52%)
   displ. norm   :     0.1020173 α      lambda       -0.6684691E-04
   maximum displ.:     0.0651214 α      in ANC's #6, #13, #1, ...

........................................................................
.............................. CYCLE    7 ..............................
........................................................................
   1    -83.4065856 -0.834066E+02  0.277E-02    3.35       0.0  T
   2    -83.4065857 -0.108494E-06  0.167E-02    3.35       1.0  T
   3    -83.4065853  0.422604E-06  0.269E-03    3.35       4.8  T
   4    -83.4065857 -0.460802E-06  0.650E-04    3.35      19.9  T
   5    -83.4065857 -0.120661E-07  0.319E-04    3.35      40.5  T
     SCC iter.                  ...        0 min,  0.014 sec
     gradient                   ...        0 min,  0.027 sec
 * total energy  :   -82.3184436 Eh     change       -0.4268691E-04 Eh
   gradient norm :     0.0025732 Eh/α   predicted    -0.3375009E-04 ( -20.94%)
   displ. norm   :     0.0697611 α      lambda       -0.3226535E-04
   maximum displ.:     0.0430889 α      in ANC's #6, #1, #13, ...

........................................................................
.............................. CYCLE    8 ..............................
........................................................................
   1    -83.4063137 -0.834063E+02  0.163E-02    3.35       0.0  T
   2    -83.4063137 -0.220836E-07  0.993E-03    3.35       1.3  T
   3    -83.4063123  0.136399E-05  0.471E-03    3.35       2.7  T
   4    -83.4063138 -0.146178E-05  0.436E-04    3.35      29.6  T
   5    -83.4063138 -0.634670E-08  0.208E-04    3.35      62.1  T
   6    -83.4063138 -0.583384E-09  0.106E-04    3.35     121.4  T
     SCC iter.                  ...        0 min,  0.016 sec
     gradient                   ...        0 min,  0.027 sec
 * total energy  :   -82.3184664 Eh     change       -0.2285788E-04 Eh
   gradient norm :     0.0021096 Eh/α   predicted    -0.1621568E-04 ( -29.06%)
   displ. norm   :     0.0655968 α      lambda       -0.2285287E-04
   maximum displ.:     0.0345055 α      in ANC's #1, #6, #13, ...

........................................................................
.............................. CYCLE    9 ..............................
........................................................................
   1    -83.4058824 -0.834059E+02  0.147E-02    3.35       0.0  T
   2    -83.4058824 -0.441764E-07  0.899E-03    3.35       1.4  T
   3    -83.4058811  0.125910E-05  0.462E-03    3.35       2.8  T
   4    -83.4058825 -0.136310E-05  0.513E-04    3.35      25.2  T
   5    -83.4058825 -0.104427E-07  0.230E-04    3.35      56.1  T
   6    -83.4058825 -0.119604E-08  0.119E-04    3.35     108.1  T
     SCC iter.                  ...        0 min,  0.016 sec
     gradient                   ...        0 min,  0.027 sec
 * total energy  :   -82.3184822 Eh     change       -0.1578680E-04 Eh
   gradient norm :     0.0012125 Eh/α   predicted    -0.1147989E-04 ( -27.28%)
   displ. norm   :     0.0753944 α      lambda       -0.1300142E-04
   maximum displ.:     0.0474036 α      in ANC's #1, #14, #13, ...

........................................................................
.............................. CYCLE   10 ..............................
........................................................................
   1    -83.4055310 -0.834055E+02  0.149E-02    3.35       0.0  T
   2    -83.4055311 -0.563613E-07  0.904E-03    3.35       1.4  T
   3    -83.4055303  0.723509E-06  0.365E-03    3.35       3.5  T
   4    -83.4055311 -0.790774E-06  0.415E-04    3.35      31.1  T
   5    -83.4055311 -0.464672E-08  0.233E-04    3.35      55.5  T
     SCC iter.                  ...        0 min,  0.014 sec
     gradient                   ...        0 min,  0.027 sec
 * total energy  :   -82.3184941 Eh     change       -0.1185215E-04 Eh
   gradient norm :     0.0012350 Eh/α   predicted    -0.6534949E-05 ( -44.86%)
   displ. norm   :     0.0497511 α      lambda       -0.7862353E-05
   maximum displ.:     0.0318305 α      in ANC's #1, #4, #14, ...

........................................................................
.............................. CYCLE   11 ..............................
........................................................................
   1    -83.4056490 -0.834056E+02  0.729E-03    3.35       0.0  T
   2    -83.4056490 -0.669196E-08  0.436E-03    3.35       3.0  T
   3    -83.4056487  0.322841E-06  0.234E-03    3.35       5.5  T
   4    -83.4056490 -0.350454E-06  0.197E-04    3.35      65.4  T
   5    -83.4056490 -0.121074E-08  0.960E-05    3.35     134.5  T
     SCC iter.                  ...        0 min,  0.014 sec
     gradient                   ...        0 min,  0.027 sec
 * total energy  :   -82.3185038 Eh     change       -0.9782042E-05 Eh
   gradient norm :     0.0010141 Eh/α   predicted    -0.3935704E-05 ( -59.77%)
   displ. norm   :     0.1127071 α      lambda       -0.1395992E-04
   maximum displ.:     0.0722721 α      in ANC's #1, #4, #13, ...

........................................................................
.............................. CYCLE   12 ..............................
........................................................................
   1    -83.4058756 -0.834059E+02  0.152E-02    3.35       0.0  T
   2    -83.4058756 -0.430061E-07  0.903E-03    3.35       1.4  T
   3    -83.4058750  0.653009E-06  0.321E-03    3.35       4.0  T
   4    -83.4058757 -0.704645E-06  0.419E-04    3.35      30.8  T
   5    -83.4058757 -0.546849E-08  0.208E-04    3.35      62.2  T
     SCC iter.                  ...        0 min,  0.014 sec
     gradient                   ...        0 min,  0.027 sec
 * total energy  :   -82.3185202 Eh     change       -0.1639243E-04 Eh
   gradient norm :     0.0010936 Eh/α   predicted    -0.7020643E-05 ( -57.17%)
   displ. norm   :     0.1378718 α      lambda       -0.1303501E-04
   maximum displ.:     0.0889601 α      in ANC's #1, #4, #6, ...

........................................................................
.............................. CYCLE   13 ..............................
........................................................................
   1    -83.4060051 -0.834060E+02  0.171E-02    3.35       0.0  T
   2    -83.4060052 -0.421321E-07  0.102E-02    3.35       1.3  T
   3    -83.4060051  0.888599E-07  0.145E-03    3.35       8.9  T
   4    -83.4060052 -0.105830E-06  0.363E-04    3.35      35.6  T
   5    -83.4060052 -0.280141E-08  0.196E-04    3.35      66.0  T
     SCC iter.                  ...        0 min,  0.014 sec
     gradient                   ...        0 min,  0.027 sec
 * total energy  :   -82.3185363 Eh     change       -0.1606651E-04 Eh
   gradient norm :     0.0011318 Eh/α   predicted    -0.6574877E-05 ( -59.08%)
   displ. norm   :     0.1489853 α      lambda       -0.1274428E-04
   maximum displ.:     0.0973267 α      in ANC's #1, #4, #6, ...

........................................................................
.............................. CYCLE   14 ..............................
........................................................................
   1    -83.4060770 -0.834061E+02  0.180E-02    3.35       0.0  T
   2    -83.4060771 -0.401325E-07  0.107E-02    3.35       1.2  T
   3    -83.4060769  0.202604E-06  0.196E-03    3.35       6.6  T
   4    -83.4060771 -0.225049E-06  0.384E-04    3.35      33.6  T
   5    -83.4060771 -0.372552E-08  0.203E-04    3.35      63.6  T
     SCC iter.                  ...        0 min,  0.014 sec
     gradient                   ...        0 min,  0.028 sec
 * total energy  :   -82.3185520 Eh     change       -0.1568094E-04 Eh
   gradient norm :     0.0010304 Eh/α   predicted    -0.6437302E-05 ( -58.95%)
   displ. norm   :     0.1454280 α      lambda       -0.1055526E-04
   maximum displ.:     0.0967885 α      in ANC's #1, #4, #6, ...

........................................................................
.............................. CYCLE   15 ..............................
........................................................................
   1    -83.4060579 -0.834061E+02  0.178E-02    3.36       0.0  T
   2    -83.4060579 -0.323409E-07  0.106E-02    3.35       1.2  T
   3    -83.4060572  0.679438E-06  0.332E-03    3.36       3.9  T
   4    -83.4060580 -0.733168E-06  0.333E-04    3.35      38.8  T
   5    -83.4060580 -0.149483E-08  0.180E-04    3.35      71.8  T
     SCC iter.                  ...        0 min,  0.014 sec
     gradient                   ...        0 min,  0.028 sec
 * total energy  :   -82.3185641 Eh     change       -0.1216797E-04 Eh
   gradient norm :     0.0006233 Eh/α   predicted    -0.5331674E-05 ( -56.18%)
   displ. norm   :     0.1038870 α      lambda       -0.5733994E-05
   maximum displ.:     0.0725448 α      in ANC's #1, #4, #6, ...

........................................................................
.............................. CYCLE   16 ..............................
........................................................................
   1    -83.4060731 -0.834061E+02  0.124E-02    3.36       0.0  T
   2    -83.4060731 -0.182040E-07  0.739E-03    3.36       1.7  T
   3    -83.4060730  0.135069E-06  0.150E-03    3.36       8.6  T
   4    -83.4060731 -0.148110E-06  0.265E-04    3.36      48.7  T
   5    -83.4060732 -0.159069E-08  0.151E-04    3.36      85.8  T
     SCC iter.                  ...        0 min,  0.014 sec
     gradient                   ...        0 min,  0.027 sec
 * total energy  :   -82.3185708 Eh     change       -0.6682832E-05 Eh
   gradient norm :     0.0005942 Eh/α   predicted    -0.2883262E-05 ( -56.86%)
   displ. norm   :     0.0687032 α      lambda       -0.3782771E-05
   maximum displ.:     0.0495870 α      in ANC's #1, #4, #2, ...

........................................................................
.............................. CYCLE   17 ..............................
........................................................................
   1    -83.4060238 -0.834060E+02  0.813E-03    3.36       0.0  T
   2    -83.4060238 -0.781606E-08  0.485E-03    3.36       2.7  T
   3    -83.4060237  0.821925E-07  0.116E-03    3.36      11.1  T
   4    -83.4060238 -0.894469E-07  0.168E-04    3.36      76.8  T
   5    -83.4060238 -0.537369E-09  0.100E-04    3.36     128.7  T
     SCC iter.                  ...        0 min,  0.014 sec
     gradient                   ...        0 min,  0.027 sec
 * total energy  :   -82.3185755 Eh     change       -0.4697713E-05 Eh
   gradient norm :     0.0005319 Eh/α   predicted    -0.1898051E-05 ( -59.60%)
   displ. norm   :     0.0638791 α      lambda       -0.4032010E-05
   maximum displ.:     0.0462936 α      in ANC's #1, #4, #2, ...

   *** GEOMETRY OPTIMIZATION CONVERGED AFTER 17 ITERATIONS ***

------------------------------------------------------------------------
 total energy gain   :        -0.0871795 Eh      -54.7060 kcal/mol
 total RMSD          :         0.1485823 a0        0.0786 Å
 total power (kW/mol):       -13.4641062 (step) -257.4375 (real)
------------------------------------------------------------------------

 ANCopt (total)                0 d,  0 h,  0 min,  0.889 sec
 optimizer setup                ...        0 min,  0.000 sec (  0.008%)
 model hessian                  ...        0 min,  0.031 sec (  3.531%)
 ANC generation                 ...        0 min,  0.003 sec (  0.305%)
 coordinate transformation      ...        0 min,  0.000 sec (  0.027%)
 single point calculation       ...        0 min,  0.849 sec ( 95.435%)
 optimization log               ...        0 min,  0.003 sec (  0.390%)
 hessian update                 ...        0 min,  0.000 sec (  0.043%)
 rational function              ...        0 min,  0.002 sec (  0.183%)

================
 final structure:
================
60
 xtb: 6.5.0 (homebrew)
C            3.27178736040812      -38.05222532927281       16.17193836211333
C            3.60281713783563      -38.25985016710827       17.64834150243913
O            3.21328780508670      -37.10455233285828       18.38747923044857
C            2.77300598323968      -39.43217013873434       18.18742767861016
C            5.13616420920394      -38.39175581462567       17.97369909704395
C            5.61632793422135      -39.81686793214788       18.24072062269309
C            6.03219952406747      -37.75328181651441       16.90493101606123
O            5.28550025410608      -37.61184318982815       19.16002501655386
B            4.18044451898504      -36.82100763560069       19.31189459709657
C            4.02179892809713      -35.72671433127361       20.41240642529271
C            5.04333095514287      -35.47848980199499       21.25003853165308
C            5.11386157379004      -34.46314215692183       22.29511417299490
H            6.05223425328101      -34.47485080357325       22.83925658846612
C            3.91386435866996      -34.00919283523734       23.10235470119105
H            4.14597805148185      -33.72883522996398       24.12269512271671
C            2.58535350260291      -34.64205591664595       22.99394525815632
B            1.79197830667646      -34.83942187165587       24.32565194547758
O            2.27268810104792      -34.48401252709768       25.55629591191605
C            1.38391092267187      -34.98123677500476       26.55637190831886
C            1.22103999134581      -33.93789699503731       27.65909057199120
C            2.03771848311200      -36.23791623214299       27.14509810301978
C            0.07683674196335      -35.29787089165777       25.74307535545804
C           -0.93556582356768      -34.14580860900689       25.76972756592333
C           -0.62962597676245      -36.59309175897545       26.13694915172623
O            0.55027535582560      -35.40399790048934       24.40055709381961
C            2.06412661866291      -35.07221994103782       21.84017547244892
C            2.70542112878420      -35.00802818222090       20.48990832043284
H            2.02724341894231      -35.43482114109950       19.75015798155449
C            3.14032063649202      -33.65423400151342       20.05562733761468
C            3.89839281709291      -32.81763782495283       20.76104782866006
C            4.51624226690497      -33.10571066791675       22.05652351218441
H            5.08475308877984      -32.27034067484557       22.45200895324999
H            2.19276018166349      -37.97680011047473       16.06182744262436
H            3.62730317555996      -38.89410124504027       15.58414060436056
H            3.71245919003115      -37.13479155883446       15.79549911296215
H            1.71892497899133      -39.19182972671020       18.06831099653301
H            2.96664667727579      -39.57321108127258       19.24777344332574
H            2.98958076991648      -40.34905381825931       17.64763504138526
H            5.42881275118039      -40.44624855482584       17.37502149817548
H            5.12415228499268      -40.23921167941662       19.11070488472048
H            6.68552689440270      -39.79673412400711       18.43631684093901
H            5.99776242886154      -38.31497392796397       15.97625602865715
H            7.05490180777678      -37.74199818563806       17.27473078500980
H            5.72977074674779      -36.72458112508298       16.72605625220157
H            5.95308504882418      -36.04505645328254       21.09636087795384
H            2.17363802674864      -33.81120643689943       28.16758720131458
H            0.47837375351264      -34.26709768385808       28.38079063790745
H            0.92807040621320      -32.97665830624065       27.24954683952875
H            3.01397441353854      -35.96639374374925       27.54028200810519
H            2.18634712057412      -36.98241473011801       26.36694162117646
H            1.43557708030818      -36.65608986536175       27.94607616339457
H           -1.37335932450903      -34.03016997796608       26.75671189263431
H           -1.72532419647668      -34.36449758209533       25.05476458092282
H           -0.45698859927565      -33.21797862416984       25.46676234657798
H           -0.91838161105341      -36.56067777965407       27.18405768945565
H            0.00544858857925      -37.45526709824528       25.96162193648897
H           -1.52357527596046      -36.70462252328426       25.52845726462981
H            1.08602556300575      -35.53138923046739       21.87497842034946
H            2.80676801660812      -33.33828059064532       19.07475242919500
H            4.17173667377011      -31.86453280949550       20.32530022214821

 Bond Distances (Angstroems)
 ---------------------------
C1-C2=1.5272         C1-H33=1.0873        C1-H34=1.0866        C1-H35=1.0852        C2-C1=1.5272         C2-O3=1.4258         
C2-C4=1.5341         C2-C5=1.5730         O3-C2=1.4258         O3-B9=1.3676         C4-C2=1.5341         C4-H36=1.0877        
C4-H37=1.0871        C4-H38=1.0858        C5-C2=1.5730         C5-C6=1.5274         C5-C7=1.5339         C5-O8=1.4276         
C6-C5=1.5274         C6-H39=1.0866        C6-H40=1.0851        C6-H41=1.0871        C7-C5=1.5339         C7-H42=1.0859        
C7-H43=1.0876        C7-H44=1.0871        O8-C5=1.4276         O8-B9=1.3673         B9-O3=1.3676         B9-O8=1.3673         
B9-C10=1.5601        C10-B9=1.5601        C10-C11=1.3442       C10-C27=1.5018       C11-C10=1.3442       C11-C12=1.4588       
C11-H45=1.0827       C12-C11=1.4588       C12-H13=1.0848       C12-C14=1.5158       C12-C31=1.5022       H13-C12=1.0848       
C14-C12=1.5158       C14-H15=1.0833       C14-C16=1.4755       C14-C31=1.5076       H15-C14=1.0833       C16-C14=1.4755       
C16-B17=1.5626       C16-C26=1.3371       B17-C16=1.5626       B17-O18=1.3682       B17-O25=1.3661       O18-B17=1.3682       
O18-C19=1.4273       C19-O18=1.4273       C19-C20=1.5268       C19-C21=1.5340       C19-C22=1.5717       C20-C19=1.5268       
C20-H46=1.0872       C20-H47=1.0866       C20-H48=1.0851       C21-C19=1.5340       C21-H49=1.0876       C21-H50=1.0872       
C21-H51=1.0858       C22-C19=1.5717       C22-C23=1.5339       C22-C24=1.5270       C22-O25=1.4275       C23-C22=1.5339       
C23-H52=1.0859       C23-H53=1.0875       C23-H54=1.0871       C24-C22=1.5270       C24-H55=1.0867       C24-H56=1.0851       
C24-H57=1.0871       O25-B17=1.3661       O25-C22=1.4275       C26-C16=1.3371       C26-C27=1.4962       C26-H58=1.0811       
C27-C10=1.5018       C27-C26=1.4962       C27-H28=1.0906       C27-C29=1.4868       H28-C27=1.0906       C29-C27=1.4868       
C29-C30=1.3312       C29-H59=1.0831       C30-C29=1.3312       C30-C31=1.4639       C30-H60=1.0831       C31-C12=1.5022       
C31-C14=1.5076       C31-C30=1.4639       C31-H32=1.0851       H32-C31=1.0851       H33-C1=1.0873        H34-C1=1.0866        
H35-C1=1.0852        H36-C4=1.0877        H37-C4=1.0871        H38-C4=1.0858        H39-C6=1.0866        H40-C6=1.0851        
H41-C6=1.0871        H42-C7=1.0859        H43-C7=1.0876        H44-C7=1.0871        H45-C11=1.0827       H46-C20=1.0872       
H47-C20=1.0866       H48-C20=1.0851       H49-C21=1.0876       H50-C21=1.0872       H51-C21=1.0858       H52-C23=1.0859       
H53-C23=1.0875       H54-C23=1.0871       H55-C24=1.0867       H56-C24=1.0851       H57-C24=1.0871       H58-C26=1.0811       
H59-C29=1.0831       H60-C30=1.0831       
 C  H  Rav=1.0860 sigma=0.0018  Rmin=1.0811  Rmax=1.0906    32
 C  B  Rav=1.5613 sigma=0.0013  Rmin=1.5601  Rmax=1.5626     2
 C  C  Rav=1.4914 sigma=0.0674  Rmin=1.3312  Rmax=1.5730    22
 O  B  Rav=1.3673 sigma=0.0008  Rmin=1.3661  Rmax=1.3682     4
 O  C  Rav=1.4270 sigma=0.0007  Rmin=1.4258  Rmax=1.4276     4

 selected bond angles (degree)
 --------------------
H33-C1-C2=108.81               H34-C1-C2=110.29               H34-C1-H33=108.89              H35-C1-C2=111.24               
H35-C1-H33=108.01              H35-C1-H34=109.54              O3-C2-C1=109.38                C4-C2-C1=109.05                
C4-C2-O3=106.81                C5-C2-C1=115.00                C5-C2-O3=103.12                C5-C2-C4=112.99                
B9-O3-C2=108.98                H36-C4-C2=108.47               H37-C4-C2=110.22               H37-C4-H36=107.95              
H38-C4-C2=111.27               H38-C4-H36=108.99              H38-C4-H37=109.87              C6-C5-C2=114.89                
C7-C5-C2=112.98                C7-C5-C6=109.06                O8-C5-C2=103.18                O8-C5-C6=109.36                
O8-C5-C7=106.89                H39-C6-C5=110.30               H40-C6-C5=111.15               H40-C6-H39=109.57              
H41-C6-C5=108.87               H41-C6-H39=108.89              H41-C6-H40=108.00              H42-C7-C5=111.23               
H43-C7-C5=108.46               H43-C7-H42=109.03              H44-C7-C5=110.25               H44-C7-H42=109.87              
H44-C7-H43=107.92              B9-O8-C5=108.89                O8-B9-O3=112.12                C10-B9-O3=123.39               
C10-B9-O8=124.49               C11-C10-B9=119.46              C27-C10-B9=117.47              C27-C10-C11=123.07             

 selected dihedral angles (degree)
 ---------------------------------
O3-C2-C1-H33=295.32           O3-C2-C1-H34=175.94           O3-C2-C1-H35= 54.19           C4-C2-C1-H33= 51.79           
C4-C2-C1-H34=292.42           C4-C2-C1-H35=170.66           C5-C2-C1-H33=179.88           C5-C2-C1-H34= 60.50           
C5-C2-C1-H35=298.75           B9-O3-C2-C1=221.26            B9-O3-C2-C4=103.37            B9-O3-C2-C5=344.08            
H36-C4-C2-C1=300.08           H36-C4-C2-O3= 58.18           H36-C4-C2-C5=170.87           H37-C4-C2-C1=182.10           
H37-C4-C2-O3=300.20           H37-C4-C2-C5= 52.89           H38-C4-C2-C1= 59.96           H38-C4-C2-O3=178.06           
H38-C4-C2-C5=290.76           C6-C5-C2-C1=256.91            C6-C5-C2-O3=137.93            C6-C5-C2-C4= 23.00            
C7-C5-C2-C1= 22.91            C7-C5-C2-O3=263.92            C7-C5-C2-C4=148.99            O8-C5-C2-C1=137.96            
O8-C5-C2-O3= 18.97            O8-C5-C2-C4=264.04            H39-C6-C5-C2= 59.61           H39-C6-C5-C7=291.61           
H39-C6-C5-O8=175.05           H40-C6-C5-C2=297.87           H40-C6-C5-C7=169.87           H40-C6-C5-O8= 53.31           
H41-C6-C5-C2=179.03           H41-C6-C5-C7= 51.03           H41-C6-C5-O8=294.47           H42-C7-C5-C2=290.87           
H42-C7-C5-C6= 59.93           H42-C7-C5-O8=178.07           H43-C7-C5-C2=170.98           H43-C7-C5-C6=300.04           
H43-C7-C5-O8= 58.17           H44-C7-C5-C2= 53.01           H44-C7-C5-C6=182.07           H44-C7-C5-O8=300.21           
B9-O8-C5-C2=344.37            B9-O8-C5-C6=221.65            B9-O8-C5-C7=103.72            O8-B9-O3-C2=  7.01            
C10-B9-O3-C2=187.44           O3-B9-O8-C5=  6.51            C10-B9-O8-C5=186.06           C11-C10-B9-O3=182.50          
C11-C10-B9-O8=  2.99          C27-C10-B9-O3=  3.29          C27-C10-B9-O8=183.77          
           -------------------------------------------------
          |                Final Singlepoint                |
           -------------------------------------------------

          ...................................................
          :                      SETUP                      :
          :.................................................:
          :  # basis functions                 144          :
          :  # atomic orbitals                 144          :
          :  # shells                           88          :
          :  # electrons                       150          :
          :  max. iterations                   250          :
          :  Hamiltonian                  GFN2-xTB          :
          :  restarted?                      false          :
          :  GBSA solvation                  false          :
          :  PC potential                    false          :
          :  electronic temp.          300.0000000     K    :
          :  accuracy                    1.0000000          :
          :  -> integral cutoff          0.2500000E+02      :
          :  -> integral neglect         0.1000000E-07      :
          :  -> SCF convergence          0.1000000E-05 Eh   :
          :  -> wf. convergence          0.1000000E-03 e    :
          :  Broyden damping             0.4000000          :
          ...................................................

 iter      E             dE          RMSdq      gap      omega  full diag
   1    -83.4060238 -0.834060E+02  0.519E-05    3.36       0.0  T
   2    -83.4060238  0.200373E-11  0.423E-05    3.36     305.5  T
   3    -83.4060238 -0.660521E-10  0.206E-05    3.36     626.7  T

   *** convergence criteria satisfied after 3 iterations ***

         #    Occupation            Energy/Eh            Energy/eV
      -------------------------------------------------------------
         1        2.0000           -0.6876894             -18.7130
       ...           ...                  ...                  ...
        69        2.0000           -0.4061363             -11.0515
        70        2.0000           -0.3982626             -10.8373
        71        2.0000           -0.3966536             -10.7935
        72        2.0000           -0.3964210             -10.7872
        73        2.0000           -0.3860199             -10.5041
        74        2.0000           -0.3577471              -9.7348
        75        2.0000           -0.3450744              -9.3900 (HOMO)
        76                         -0.2217762              -6.0348 (LUMO)
        77                         -0.2129314              -5.7942
        78                         -0.1878575              -5.1119
        79                         -0.1017781              -2.7695
        80                         -0.0928897              -2.5277
       ...                                ...                  ...
       144                          0.6836562              18.6032
      -------------------------------------------------------------
                  HL-Gap            0.1232981 Eh            3.3551 eV
             Fermi-level           -0.2834253 Eh           -7.7124 eV

 SCC (total)                   0 d,  0 h,  0 min,  0.043 sec
 SCC setup                      ...        0 min,  0.000 sec (  0.520%)
 Dispersion                     ...        0 min,  0.000 sec (  0.892%)
 classical contributions        ...        0 min,  0.000 sec (  0.402%)
 integral evaluation            ...        0 min,  0.006 sec ( 13.977%)
 iterations                     ...        0 min,  0.008 sec ( 19.499%)
 molecular gradient             ...        0 min,  0.028 sec ( 63.914%)
 printout                       ...        0 min,  0.000 sec (  0.789%)

         :::::::::::::::::::::::::::::::::::::::::::::::::::::
         ::                     SUMMARY                     ::
         :::::::::::::::::::::::::::::::::::::::::::::::::::::
         :: total energy             -82.318575520659 Eh    ::
         :: gradient norm              0.000532035393 Eh/a0 ::
         :: HOMO-LUMO gap              3.355113320058 eV    ::
         ::.................................................::
         :: SCC energy               -83.406023839606 Eh    ::
         :: -> isotropic ES            0.147075617509 Eh    ::
         :: -> anisotropic ES          0.012196359574 Eh    ::
         :: -> anisotropic XC          0.026641487411 Eh    ::
         :: -> dispersion             -0.061401024593 Eh    ::
         :: repulsion energy           1.086608681511 Eh    ::
         :: add. restraining           0.000077859556 Eh    ::
         :: total charge              -0.000000000000 e     ::
         :::::::::::::::::::::::::::::::::::::::::::::::::::::

           -------------------------------------------------
          |                Property Printout                |
           -------------------------------------------------

    * Orbital Energies and Occupations

         #    Occupation            Energy/Eh            Energy/eV
      -------------------------------------------------------------
         1        2.0000           -0.6876894             -18.7130
       ...           ...                  ...                  ...
        63        2.0000           -0.4373180             -11.9000
        64        2.0000           -0.4318658             -11.7517
        65        2.0000           -0.4271581             -11.6236
        66        2.0000           -0.4196055             -11.4180
        67        2.0000           -0.4191321             -11.4052
        68        2.0000           -0.4126077             -11.2276
        69        2.0000           -0.4061363             -11.0515
        70        2.0000           -0.3982626             -10.8373
        71        2.0000           -0.3966536             -10.7935
        72        2.0000           -0.3964210             -10.7872
        73        2.0000           -0.3860199             -10.5041
        74        2.0000           -0.3577471              -9.7348
        75        2.0000           -0.3450744              -9.3900 (HOMO)
        76                         -0.2217762              -6.0348 (LUMO)
        77                         -0.2129314              -5.7942
        78                         -0.1878575              -5.1119
        79                         -0.1017781              -2.7695
        80                         -0.0928897              -2.5277
        81                          0.0085919               0.2338
        82                          0.0098755               0.2687
        83                          0.0161975               0.4408
        84                          0.0288935               0.7862
        85                          0.0295504               0.8041
        86                          0.0572269               1.5572
       ...                                ...                  ...
       144                          0.6836562              18.6032
      -------------------------------------------------------------
                  HL-Gap            0.1232981 Eh            3.3551 eV
             Fermi-level           -0.2834253 Eh           -7.7124 eV

     #   Z          covCN         q      C6AA      α(0)
     1   6 C        3.755    -0.117    22.795     6.808
     2   6 C        3.858     0.129    18.456     6.110
     3   8 O        1.638    -0.371    20.303     6.082
     4   6 C        3.755    -0.116    22.775     6.805
     5   6 C        3.858     0.129    18.453     6.109
     6   6 C        3.755    -0.117    22.802     6.809
     7   6 C        3.755    -0.116    22.776     6.805
     8   8 O        1.638    -0.373    20.345     6.088
     9   5 B        2.659     0.431    15.568     6.643
    10   6 C        2.932    -0.081    30.019     8.985
    11   6 C        2.896    -0.035    28.868     8.809
    12   6 C        3.862    -0.010    20.722     6.474
    13   1 H        0.925     0.030     2.592     2.518
    14   6 C        3.864    -0.021    20.902     6.502
    15   1 H        0.925     0.041     2.435     2.440
    16   6 C        2.863    -0.085    30.114     8.995
    17   5 B        2.663     0.432    15.544     6.635
    18   8 O        1.638    -0.374    20.354     6.090
    19   6 C        3.860     0.129    18.453     6.109
    20   6 C        3.755    -0.117    22.800     6.808
    21   6 C        3.755    -0.116    22.779     6.805
    22   6 C        3.860     0.129    18.454     6.109
    23   6 C        3.755    -0.116    22.785     6.806
    24   6 C        3.755    -0.118    22.806     6.809
    25   8 O        1.638    -0.371    20.296     6.081
    26   6 C        2.900    -0.030    28.740     8.790
    27   6 C        3.866    -0.014    20.791     6.484
    28   1 H        0.924     0.045     2.385     2.415
    29   6 C        2.958    -0.029    28.733     8.792
    30   6 C        2.890    -0.044    29.084     8.842
    31   6 C        3.863    -0.009    20.696     6.469
    32   1 H        0.925     0.029     2.598     2.521
    33   1 H        0.925     0.054     2.266     2.354
    34   1 H        0.925     0.039     2.458     2.452
    35   1 H        0.925     0.051     2.302     2.373
    36   1 H        0.925     0.052     2.292     2.367
    37   1 H        0.925     0.043     2.403     2.424
    38   1 H        0.925     0.042     2.423     2.434
    39   1 H        0.925     0.040     2.450     2.448
    40   1 H        0.925     0.052     2.298     2.370
    41   1 H        0.925     0.054     2.269     2.356
    42   1 H        0.925     0.043     2.414     2.430
    43   1 H        0.925     0.052     2.295     2.369
    44   1 H        0.925     0.044     2.402     2.424
    45   1 H        0.925     0.035     2.519     2.482
    46   1 H        0.925     0.054     2.269     2.355
    47   1 H        0.925     0.040     2.451     2.448
    48   1 H        0.925     0.052     2.293     2.368
    49   1 H        0.925     0.052     2.295     2.369
    50   1 H        0.925     0.044     2.401     2.423
    51   1 H        0.925     0.043     2.415     2.430
    52   1 H        0.925     0.043     2.413     2.429
    53   1 H        0.925     0.053     2.286     2.365
    54   1 H        0.925     0.044     2.398     2.421
    55   1 H        0.925     0.040     2.450     2.448
    56   1 H        0.925     0.052     2.294     2.369
    57   1 H        0.925     0.055     2.262     2.352
    58   1 H        0.926     0.036     2.507     2.476
    59   1 H        0.925     0.024     2.667     2.554
    60   1 H        0.925     0.023     2.690     2.565

 Mol. C6AA /au·bohr⁶  :      32808.180919
 Mol. C8AA /au·bohr⁸  :     759544.062220
 Mol. α(0) /au        :        273.203421


Wiberg/Mayer (AO) data.
largest (>0.10) Wiberg bond orders for each atom

 ---------------------------------------------------------------------------
     #   Z sym  total        # sym  WBO       # sym  WBO       # sym  WBO
 ---------------------------------------------------------------------------
     1   6 C    3.994 --     2 C    0.996    34 H    0.985    33 H    0.983
                            35 H    0.982
     2   6 C    3.943 --     1 C    0.996     4 C    0.991     3 O    0.954
                             5 C    0.936
     3   8 O    2.233 --     9 B    1.127     2 C    0.954
     4   6 C    3.994 --     2 C    0.991    38 H    0.984    37 H    0.984
                            36 H    0.983
     5   6 C    3.942 --     6 C    0.996     7 C    0.991     8 O    0.953
                             2 C    0.936
     6   6 C    3.994 --     5 C    0.996    39 H    0.984    41 H    0.983
                            40 H    0.982
     7   6 C    3.995 --     5 C    0.991    42 H    0.984    44 H    0.984
                            43 H    0.983
     8   8 O    2.231 --     9 B    1.128     5 C    0.953
     9   5 B    3.377 --     8 O    1.128     3 O    1.127    10 C    1.002
    10   6 C    3.974 --    11 C    1.771     9 B    1.002    27 C    0.959
    11   6 C    3.989 --    10 C    1.771    12 C    1.098    45 H    0.965
    12   6 C    3.951 --    11 C    1.098    13 H    0.971    14 C    0.891
                            31 C    0.871
    13   1 H    0.999 --    12 C    0.971
    14   6 C    3.941 --    16 C    1.050    15 H    0.969    31 C    0.910
                            12 C    0.891
    15   1 H    0.998 --    14 C    0.969
    16   6 C    3.979 --    26 C    1.815    14 C    1.050    17 B    0.996
    17   5 B    3.374 --    25 O    1.133    18 O    1.127    16 C    0.996
    18   8 O    2.232 --    17 B    1.127    19 C    0.952
    19   6 C    3.943 --    20 C    0.997    21 C    0.991    18 O    0.952
                            22 C    0.937
    20   6 C    3.994 --    19 C    0.997    47 H    0.984    46 H    0.983
                            48 H    0.982
    21   6 C    3.994 --    19 C    0.991    51 H    0.984    50 H    0.984
                            49 H    0.983
    22   6 C    3.942 --    24 C    0.996    23 C    0.991    25 O    0.952
                            19 C    0.937
    23   6 C    3.995 --    22 C    0.991    52 H    0.984    54 H    0.984
                            53 H    0.983
    24   6 C    3.994 --    22 C    0.996    55 H    0.985    57 H    0.983
                            56 H    0.982
    25   8 O    2.236 --    17 B    1.133    22 C    0.952
    26   6 C    3.987 --    16 C    1.815    27 C    0.997    58 H    0.968
    27   6 C    3.994 --    26 C    0.997    29 C    0.982    28 H    0.970
                            10 C    0.959
    28   1 H    0.998 --    27 C    0.970
    29   6 C    3.988 --    30 C    1.846    27 C    0.982    59 H    0.968
    30   6 C    3.989 --    29 C    1.846    31 C    1.078    60 H    0.967
    31   6 C    3.947 --    30 C    1.078    32 H    0.971    14 C    0.910
                            12 C    0.871
    32   1 H    0.999 --    31 C    0.971
    33   1 H    0.997 --     1 C    0.983
    34   1 H    0.998 --     1 C    0.985
    35   1 H    0.997 --     1 C    0.982
    36   1 H    0.997 --     4 C    0.983
    37   1 H    0.998 --     4 C    0.984
    38   1 H    0.998 --     4 C    0.984
    39   1 H    0.998 --     6 C    0.984
    40   1 H    0.997 --     6 C    0.982
    41   1 H    0.997 --     6 C    0.983
    42   1 H    0.998 --     7 C    0.984
    43   1 H    0.997 --     7 C    0.983
    44   1 H    0.998 --     7 C    0.984
    45   1 H    0.999 --    11 C    0.965
    46   1 H    0.997 --    20 C    0.983
    47   1 H    0.998 --    20 C    0.984
    48   1 H    0.997 --    20 C    0.982
    49   1 H    0.997 --    21 C    0.983
    50   1 H    0.998 --    21 C    0.984
    51   1 H    0.998 --    21 C    0.984
    52   1 H    0.998 --    23 C    0.984
    53   1 H    0.997 --    23 C    0.983
    54   1 H    0.998 --    23 C    0.984
    55   1 H    0.998 --    24 C    0.985
    56   1 H    0.997 --    24 C    0.982
    57   1 H    0.997 --    24 C    0.983
    58   1 H    0.999 --    26 C    0.968
    59   1 H    0.999 --    29 C    0.968
    60   1 H    0.999 --    30 C    0.967
 ---------------------------------------------------------------------------

Topologies differ in total number of bonds
Writing topology from bond orders to xtbtopo.mol

molecular dipole:
                 x           y           z       tot (Debye)
 q only:       -0.226      -0.556       0.194
   full:       -0.185      -0.672       0.210       1.850
molecular quadrupole (traceless):
                xx          xy          yy          xz          yz          zz
 q only:      -56.483      16.671      63.480     -23.564     -45.229      -6.997
  q+dip:      -64.474      13.248      76.048     -19.745     -52.095     -11.574
   full:      -65.423      12.095      77.570     -21.577     -53.215     -12.147

           -------------------------------------------------
          |                Geometry Summary                 |
           -------------------------------------------------

      molecular mass/u    :      382.1099696
   center of mass at/Å    :        2.9703006     -35.8812350      21.8148495
  moments of inertia/u·Å² :        0.1423080E+04   0.6308365E+04   0.6792766E+04
rotational constants/cm⁻¹ :        0.1184588E-01   0.2672266E-02   0.2481704E-02

 * 60 selected distances

     #   Z          #   Z                                           value/Å
     1   6 C        2   6 C                                       1.5272379
     2   6 C        3   8 O                                       1.4257528
     2   6 C        4   6 C                                       1.5341235
     5   6 C        6   6 C                                       1.5273515
     5   6 C        7   6 C                                       1.5338820
     5   6 C        8   8 O                                       1.4275624
     3   8 O        9   5 B                                       1.3676015
     8   8 O        9   5 B                                       1.3673455
     9   5 B       10   6 C                                       1.5600554
    10   6 C       11   6 C                                       1.3441618
    11   6 C       12   6 C                                       1.4587971
    12   6 C       13   1 H                                       1.0847910
    12   6 C       14   6 C                                       1.5158169
    14   6 C       15   1 H                                       1.0833153
    14   6 C       16   6 C                                       1.4755371
    16   6 C       17   5 B                                       1.5626390 (max)
    17   5 B       18   8 O                                       1.3681676
    18   8 O       19   6 C                                       1.4273434
    19   6 C       20   6 C                                       1.5267854
    19   6 C       21   6 C                                       1.5340491
    22   6 C       23   6 C                                       1.5339222
    22   6 C       24   6 C                                       1.5270310
    17   5 B       25   8 O                                       1.3660832
    22   6 C       25   8 O                                       1.4275023
    16   6 C       26   6 C                                       1.3371251
    27   6 C       28   1 H                                       1.0905540
    27   6 C       29   6 C                                       1.4867739
    29   6 C       30   6 C                                       1.3312344
    12   6 C       31   6 C                                       1.5022300
    14   6 C       31   6 C                                       1.5076148
    30   6 C       31   6 C                                       1.4638926
    31   6 C       32   1 H                                       1.0851067
     1   6 C       33   1 H                                       1.0872503
     1   6 C       34   1 H                                       1.0865786
     1   6 C       35   1 H                                       1.0851650
     4   6 C       36   1 H                                       1.0876761
     4   6 C       37   1 H                                       1.0870707
     4   6 C       38   1 H                                       1.0857977
     6   6 C       39   1 H                                       1.0866081
     6   6 C       40   1 H                                       1.0851193
     6   6 C       41   1 H                                       1.0871292
     7   6 C       42   1 H                                       1.0858736
     7   6 C       43   1 H                                       1.0875658
     7   6 C       44   1 H                                       1.0870532
    11   6 C       45   1 H                                       1.0827129
    20   6 C       46   1 H                                       1.0872270
    20   6 C       47   1 H                                       1.0866358
    20   6 C       48   1 H                                       1.0851439
    21   6 C       49   1 H                                       1.0876445
    21   6 C       50   1 H                                       1.0871505
    21   6 C       51   1 H                                       1.0858221
    23   6 C       52   1 H                                       1.0858977
    23   6 C       53   1 H                                       1.0875272
    23   6 C       54   1 H                                       1.0870569
    24   6 C       55   1 H                                       1.0866770
    24   6 C       56   1 H                                       1.0850833
    24   6 C       57   1 H                                       1.0871279
    26   6 C       58   1 H                                       1.0810780 (min)
    29   6 C       59   1 H                                       1.0831434
    30   6 C       60   1 H                                       1.0830523

 * 5 distinct bonds (by element types)

   Z      Z             #   av. dist./Å        max./Å        min./Å
   1 H    6 C          32     1.0859886     1.0905540     1.0810780
   5 B    6 C           2     1.5613472     1.5626390     1.5600554
   6 C    6 C          18     1.4815315     1.5341235     1.3312344
   5 B    8 O           4     1.3672995     1.3681676     1.3660832
   6 C    8 O           4     1.4270402     1.4275624     1.4257528


optimized geometry written to: xtbopt.xyz


           -------------------------------------------------
          | TOTAL ENERGY              -82.318575520659 Eh   |
          | GRADIENT NORM               0.000532035393 Eh/α |
          | HOMO-LUMO GAP               3.355113320058 eV   |
           -------------------------------------------------

------------------------------------------------------------------------
 * finished run on 2022/07/09 at 18:32:55.236     
------------------------------------------------------------------------
 total:
 * wall-time:     0 d,  0 h,  0 min,  1.013 sec
 *  cpu-time:     0 d,  0 h,  0 min,  1.013 sec
 * ratio c/w:     1.000 speedup
 SCF:
 * wall-time:     0 d,  0 h,  0 min,  0.068 sec
 *  cpu-time:     0 d,  0 h,  0 min,  0.068 sec
 * ratio c/w:     1.000 speedup
 ANC optimizer:
 * wall-time:     0 d,  0 h,  0 min,  0.933 sec
 *  cpu-time:     0 d,  0 h,  0 min,  0.933 sec
 * ratio c/w:     1.000 speedup

