      -----------------------------------------------------------      
     |                   =====================                   |     
     |                           x T B                           |     
     |                   =====================                   |     
     |                         S. Grimme                         |     
     |          Mulliken Center for Theoretical Chemistry        |     
     |                    University of Bonn                     |     
      -----------------------------------------------------------      

   * xtb version 6.5.0 (homebrew) compiled by 'nhattrup@GPGGRP-SHANNON.CHEME.CMU.EDU' on 

   xtb is free software: you can redistribute it and/or modify it under
   the terms of the GNU Lesser General Public License as published by
   the Free Software Foundation, either version 3 of the License, or
   (at your option) any later version.
   
   xtb is distributed in the hope that it will be useful,
   but WITHOUT ANY WARRANTY; without even the implied warranty of
   MERCHANTABILITY or FITNESS FOR A PARTICULAR PURPOSE.  See the
   GNU Lesser General Public License for more details.
   
   Cite this work as:
   * C. Bannwarth, E. Caldeweyher, S. Ehlert, A. Hansen, P. Pracht,
     J. Seibert, S. Spicher, S. Grimme, WIREs Comput. Mol. Sci., 2020, 11,
     e01493. DOI: 10.1002/wcms.1493
   
   for GFN2-xTB:
   * C. Bannwarth, S. Ehlert and S. Grimme., J. Chem. Theory Comput., 2019,
     15, 1652-1671. DOI: 10.1021/acs.jctc.8b01176
   for GFN1-xTB:
   * S. Grimme, C. Bannwarth, P. Shushkov, J. Chem. Theory Comput., 2017,
     13, 1989-2009. DOI: 10.1021/acs.jctc.7b00118
   for GFN0-xTB:
   * P. Pracht, E. Caldeweyher, S. Ehlert, S. Grimme, ChemRxiv, 2019, preprint.
     DOI: 10.26434/chemrxiv.8326202.v1
   for GFN-FF:
   * S. Spicher and S. Grimme, Angew. Chem. Int. Ed., 2020, 59, 15665-15673.
     DOI: 10.1002/anie.202004239
   
   for ALPB and GBSA implicit solvation:
   * S. Ehlert, M. Stahn, S. Spicher, S. Grimme, J. Chem. Theory Comput.,
     2021, 17, 4250-4261. DOI: 10.1021/acs.jctc.1c00471
   
   for DFT-D4:
   * E. Caldeweyher, C. Bannwarth and S. Grimme, J. Chem. Phys., 2017,
     147, 034112. DOI: 10.1063/1.4993215
   * E. Caldeweyher, S. Ehlert, A. Hansen, H. Neugebauer, S. Spicher,
     C. Bannwarth and S. Grimme, J. Chem. Phys., 2019, 150, 154122.
     DOI: 10.1063/1.5090222
   * E. Caldeweyher, J.-M. Mewes, S. Ehlert and S. Grimme, Phys. Chem. Chem. Phys.
     2020, 22, 8499-8512. DOI: 10.1039/D0CP00502A
   
   for sTDA-xTB:
   * S. Grimme and C. Bannwarth, J. Chem. Phys., 2016, 145, 054103.
     DOI: 10.1063/1.4959605
   
   in the mass-spec context:
   * V. Asgeirsson, C. Bauer and S. Grimme, Chem. Sci., 2017, 8, 4879.
     DOI: 10.1039/c7sc00601b
   * J. Koopman and S. Grimme, ACS Omega 2019, 4, 12, 15120-15133.
     DOI: 10.1021/acsomega.9b02011
   
   for metadynamics refer to:
   * S. Grimme, J. Chem. Theory Comput., 2019, 155, 2847-2862
     DOI: 10.1021/acs.jctc.9b00143
   
   for SPH calculations refer to:
   * S. Spicher and S. Grimme, J. Chem. Theory Comput., 2021, 17, 1701-1714
     DOI: 10.1021/acs.jctc.0c01306
   
   with help from (in alphabetical order)
   P. Atkinson, C. Bannwarth, F. Bohle, G. Brandenburg, E. Caldeweyher
   M. Checinski, S. Dohm, S. Ehlert, S. Ehrlich, I. Gerasimov, C. Hölzer
   A. Katbashev, J. Koopman, C. Lavigne, S. Lehtola, F. März, M. Müller,
   F. Musil, H. Neugebauer, J. Pisarek, C. Plett, P. Pracht, F. Pultar,
   J. Seibert, P. Shushkov, S. Spicher, M. Stahn, M. Steiner, T. Strunk,
   J. Stückrath, T. Rose, and J. Unsleber
   
 * started run on 2022/07/09 at 18:33:20.284     

           -------------------------------------------------
          |                Calculation Setup                |
           -------------------------------------------------

          program call               : /opt/homebrew/bin/xtb bvl_bpin2_scan_9-0_xtb.xyz --chrg 0 --uhf 0 --opt --input xcontrol_bvl_bpin2_scan_9-0_xtb
          coordinate file            : bvl_bpin2_scan_9-0_xtb.xyz
          omp threads                :                     1

   ID    Z sym.   atoms
    1    6 C      1, 2, 4-7, 10-12, 14, 16, 19-24, 26, 27, 29-31
    2    8 O      3, 8, 18, 25
    3    5 B      9, 17
    4    1 H      13, 15, 28, 32-60
constraining bond 12 31 to    2.5000000 Å, actual value:    2.3851148 Å
constraining bond 10 29 to    2.5000000 Å, actual value:    2.4959206 Å

           -------------------------------------------------
          |                 G F N 2 - x T B                 |
           -------------------------------------------------

        Reference                      10.1021/acs.jctc.8b01176
      * Hamiltonian:
        H0-scaling (s, p, d)           1.850000    2.230000    2.230000
        zeta-weighting                 0.500000
      * Dispersion:
        s8                             2.700000
        a1                             0.520000
        a2                             5.000000
        s9                             5.000000
      * Repulsion:
        kExp                           1.500000    1.000000
        rExp                           1.000000
      * Coulomb:
        alpha                          2.000000
        third order                    shell-resolved
        anisotropic                    true
        a3                             3.000000
        a5                             4.000000
        cn-shift                       1.200000
        cn-exp                         4.000000
        max-rad                        5.000000


          ...................................................
          :                      SETUP                      :
          :.................................................:
          :  # basis functions                 144          :
          :  # atomic orbitals                 144          :
          :  # shells                           88          :
          :  # electrons                       150          :
          :  max. iterations                   250          :
          :  Hamiltonian                  GFN2-xTB          :
          :  restarted?                      false          :
          :  GBSA solvation                  false          :
          :  PC potential                    false          :
          :  electronic temp.          300.0000000     K    :
          :  accuracy                    1.0000000          :
          :  -> integral cutoff          0.2500000E+02      :
          :  -> integral neglect         0.1000000E-07      :
          :  -> SCF convergence          0.1000000E-05 Eh   :
          :  -> wf. convergence          0.1000000E-03 e    :
          :  Broyden damping             0.4000000          :
          ...................................................

 iter      E             dE          RMSdq      gap      omega  full diag
   1    -82.8868003 -0.828868E+02  0.480E+00    0.92       0.0  T
   2    -83.1194985 -0.232698E+00  0.324E+00    1.17       1.0  T
   3    -82.9719330  0.147565E+00  0.280E+00    2.39       1.0  T
   4    -83.2300148 -0.258082E+00  0.129E+00    1.02       1.0  T
   5    -83.2850817 -0.550669E-01  0.893E-01    1.00       1.0  T
   6    -83.3293764 -0.442947E-01  0.269E-01    0.88       1.0  T
   7    -83.3299869 -0.610502E-03  0.187E-01    0.88       1.0  T
   8    -83.3315550 -0.156808E-02  0.584E-02    0.87       1.0  T
   9    -83.3317240 -0.168974E-03  0.354E-02    0.87       1.0  T
  10    -83.3317956 -0.716329E-04  0.102E-02    0.87       1.3  T
  11    -83.3317989 -0.327031E-05  0.409E-03    0.87       3.2  T
  12    -83.3317998 -0.891504E-06  0.242E-03    0.87       5.3  T
  13    -83.3317999 -0.148403E-06  0.169E-03    0.87       7.6  T
  14    -83.3318001 -0.145261E-06  0.756E-04    0.87      17.1  T
  15    -83.3318001 -0.319460E-07  0.190E-04    0.87      67.8  T

   *** convergence criteria satisfied after 15 iterations ***

         #    Occupation            Energy/Eh            Energy/eV
      -------------------------------------------------------------
         1        2.0000           -0.6858904             -18.6640
       ...           ...                  ...                  ...
        69        2.0000           -0.4022730             -10.9464
        70        2.0000           -0.3976478             -10.8205
        71        2.0000           -0.3956630             -10.7665
        72        2.0000           -0.3947081             -10.7406
        73        2.0000           -0.3904649             -10.6251
        74        2.0000           -0.3662861              -9.9672
        75        2.0000           -0.3224983              -8.7756 (HOMO)
        76                         -0.2905159              -7.9053 (LUMO)
        77                         -0.2165155              -5.8917
        78                         -0.1847115              -5.0263
        79                         -0.1542575              -4.1976
        80                         -0.0938957              -2.5550
       ...                                ...                  ...
       144                          0.6752973              18.3758
      -------------------------------------------------------------
                  HL-Gap            0.0319824 Eh            0.8703 eV
             Fermi-level           -0.3065071 Eh           -8.3405 eV

 SCC (total)                   0 d,  0 h,  0 min,  0.080 sec
 SCC setup                      ...        0 min,  0.000 sec (  0.345%)
 Dispersion                     ...        0 min,  0.000 sec (  0.544%)
 classical contributions        ...        0 min,  0.000 sec (  0.236%)
 integral evaluation            ...        0 min,  0.007 sec (  8.598%)
 iterations                     ...        0 min,  0.044 sec ( 55.267%)
 molecular gradient             ...        0 min,  0.028 sec ( 34.558%)
 printout                       ...        0 min,  0.000 sec (  0.445%)

         :::::::::::::::::::::::::::::::::::::::::::::::::::::
         ::                     SUMMARY                     ::
         :::::::::::::::::::::::::::::::::::::::::::::::::::::
         :: total energy             -82.170257696781 Eh    ::
         :: gradient norm              1.187703168323 Eh/a0 ::
         :: HOMO-LUMO gap              0.870284391773 eV    ::
         ::.................................................::
         :: SCC energy               -83.331800096108 Eh    ::
         :: -> isotropic ES            0.147384112691 Eh    ::
         :: -> anisotropic ES          0.012718079634 Eh    ::
         :: -> anisotropic XC          0.028006772973 Eh    ::
         :: -> dispersion             -0.062095525166 Eh    ::
         :: repulsion energy           1.066391044749 Eh    ::
         :: add. restraining           0.094385084671 Eh    ::
         :: total charge              -0.000000000000 e     ::
         :::::::::::::::::::::::::::::::::::::::::::::::::::::

      ----------------------------------------------------------- 
     |                   =====================                   |
     |                        A N C O P T                        |
     |                   =====================                   |
     |               Approximate Normal Coordinate               |
     |                Rational Function Optimizer                |
      ----------------------------------------------------------- 

          ...................................................
          :                      SETUP                      :
          :.................................................:
          :   optimization level            normal          :
          :   max. optcycles                   200          :
          :   ANC micro-cycles                  20          :
          :   degrees of freedom               174          :
          :.................................................:
          :   RF solver                   davidson          :
          :   write xtbopt.log                true          :
          :   linear?                        false          :
          :   energy convergence         0.5000000E-05 Eh   :
          :   grad. convergence          0.1000000E-02 Eh/α :
          :   maximium RF displ.         1.0000000          :
          :   Hlow (freq-cutoff)         0.1000000E-01      :
          :   Hmax (freq-cutoff)         5.0000000          :
          :   S6 in model hess.         20.0000000          :
          ...................................................

generating ANC from model Hessian ...
Using Lindh-Hessian (1995)
 Shifting diagonal of input Hessian by   0.20575407980027796     
 Lowest  eigenvalues of input Hessian
    0.010000    0.134716    0.000000    0.000000    0.000000    0.000000
    0.000000    0.000000    0.205843    0.205883    0.206016    0.206911
    0.207515    0.207946    0.208997    0.209057    0.210219    0.210395
 Highest eigenvalues
    1.915580    2.045783    2.077191    2.085901    8.789219    8.847290


........................................................................
.............................. CYCLE    1 ..............................
........................................................................
   1    -83.3318001 -0.833318E+02  0.957E-05    0.87       0.0  T
   2    -83.3318001  0.732652E-08  0.334E-04    0.87      38.6  T
   3    -83.3318001 -0.785441E-08  0.244E-05    0.87     529.9  T
     SCC iter.                  ...        0 min,  0.009 sec
     gradient                   ...        0 min,  0.027 sec
 * total energy  :   -82.1702577 Eh     change       -0.1892701E-08 Eh
   gradient norm :     1.1877034 Eh/α   predicted     0.0000000E+00 (-100.00%)
   displ. norm   :     0.2335799 α      lambda       -0.2703951E+00
   maximum displ.:     0.1842213 α      in ANC's #173, #174, #123, ...

........................................................................
.............................. CYCLE    2 ..............................
........................................................................
   1    -83.3212020 -0.833212E+02  0.176E-01    0.71       0.0  T
   2    -83.3206237  0.578333E-03  0.180E-01    0.71       1.0  T
   3    -83.3210214 -0.397720E-03  0.146E-01    0.70       1.0  T
   4    -83.3187686  0.225284E-02  0.225E-01    0.72       1.0  T
   5    -83.3220717 -0.330311E-02  0.253E-02    0.70       1.0  T
   6    -83.3221069 -0.352408E-04  0.604E-03    0.70       2.1  T
   7    -83.3221084 -0.153436E-05  0.247E-03    0.70       5.2  T
   8    -83.3221085 -0.461710E-07  0.917E-04    0.70      14.1  T
   9    -83.3221085 -0.270080E-07  0.308E-04    0.70      42.0  T
     SCC iter.                  ...        0 min,  0.025 sec
     gradient                   ...        0 min,  0.028 sec
 * total energy  :   -82.2278153 Eh     change       -0.5755764E-01 Eh
   gradient norm :     0.6926023 Eh/α   predicted    -0.1431068E+00 ( 148.63%)
   displ. norm   :     0.0843268 α      lambda       -0.5735856E-01
   maximum displ.:     0.0682488 α      in ANC's #173, #174, #37, ...

........................................................................
.............................. CYCLE    3 ..............................
........................................................................
   1    -83.3231436 -0.833231E+02  0.735E-02    0.75       0.0  T
   2    -83.3230408  0.102803E-03  0.715E-02    0.75       1.0  T
   3    -83.3229845  0.562931E-04  0.720E-02    0.75       1.0  T
   4    -83.3229588  0.257159E-04  0.710E-02    0.75       1.0  T
   5    -83.3232727 -0.313956E-03  0.106E-02    0.75       1.2  T
   6    -83.3232795 -0.680608E-05  0.215E-03    0.75       6.0  T
   7    -83.3232797 -0.179556E-06  0.933E-04    0.75      13.8  T
   8    -83.3232797 -0.754828E-08  0.398E-04    0.75      32.5  T
     SCC iter.                  ...        0 min,  0.022 sec
     gradient                   ...        0 min,  0.028 sec
 * total energy  :   -82.2569394 Eh     change       -0.2912410E-01 Eh
   gradient norm :     0.0174045 Eh/α   predicted    -0.2888591E-01 (  -0.82%)
   displ. norm   :     0.0273525 α      lambda       -0.3210995E-03
   maximum displ.:     0.0112682 α      in ANC's #37, #74, #117, ...

........................................................................
.............................. CYCLE    4 ..............................
........................................................................
   1    -83.3216151 -0.833216E+02  0.179E-02    0.74       0.0  T
   2    -83.3216133  0.176285E-05  0.120E-02    0.74       1.1  T
   3    -83.3215411  0.722539E-04  0.331E-02    0.74       1.0  T
   4    -83.3216139 -0.728325E-04  0.567E-03    0.74       2.3  T
   5    -83.3216159 -0.201087E-05  0.160E-03    0.74       8.0  T
   6    -83.3216161 -0.216333E-06  0.260E-04    0.74      49.6  T
   7    -83.3216161 -0.152096E-08  0.127E-04    0.74     101.6  T
     SCC iter.                  ...        0 min,  0.019 sec
     gradient                   ...        0 min,  0.027 sec
 * total energy  :   -82.2572166 Eh     change       -0.2771224E-03 Eh
   gradient norm :     0.0094964 Eh/α   predicted    -0.1677644E-03 ( -39.46%)
   displ. norm   :     0.0782273 α      lambda       -0.5861656E-03
   maximum displ.:     0.0365890 α      in ANC's #37, #29, #74, ...

........................................................................
.............................. CYCLE    5 ..............................
........................................................................
   1    -83.3186104 -0.833186E+02  0.482E-02    0.72       0.0  T
   2    -83.3185645  0.459174E-04  0.375E-02    0.72       1.0  T
   3    -83.3180075  0.556995E-03  0.960E-02    0.73       1.0  T
   4    -83.3186120 -0.604579E-03  0.807E-03    0.72       1.6  T
   5    -83.3186157 -0.362272E-05  0.270E-03    0.72       4.8  T
   6    -83.3186163 -0.590331E-06  0.611E-04    0.72      21.1  T
   7    -83.3186163 -0.971838E-08  0.317E-04    0.72      40.7  T
     SCC iter.                  ...        0 min,  0.020 sec
     gradient                   ...        0 min,  0.028 sec
 * total energy  :   -82.2575580 Eh     change       -0.3414305E-03 Eh
   gradient norm :     0.0098524 Eh/α   predicted    -0.2949226E-03 ( -13.62%)
   displ. norm   :     0.0702762 α      lambda       -0.1672040E-03
   maximum displ.:     0.0542043 α      in ANC's #1, #37, #29, ...

........................................................................
.............................. CYCLE    6 ..............................
........................................................................
   1    -83.3183941 -0.833184E+02  0.430E-02    0.71       0.0  T
   2    -83.3181920  0.202120E-03  0.602E-02    0.71       1.0  T
   3    -83.3182716 -0.796181E-04  0.484E-02    0.71       1.0  T
   4    -83.3184017 -0.130118E-03  0.571E-03    0.71       2.3  T
   5    -83.3184044 -0.262037E-05  0.140E-03    0.71       9.2  T
   6    -83.3184044 -0.210716E-07  0.126E-03    0.71      10.2  T
   7    -83.3184045 -0.679189E-07  0.601E-04    0.71      21.5  T
   8    -83.3184045 -0.209029E-07  0.914E-05    0.71     141.2  T
     SCC iter.                  ...        0 min,  0.022 sec
     gradient                   ...        0 min,  0.028 sec
 * total energy  :   -82.2575792 Eh     change       -0.2120305E-04 Eh
   gradient norm :     0.0110929 Eh/α   predicted    -0.8436709E-04 ( 297.90%)
   displ. norm   :     0.1359792 α      lambda       -0.5334998E-03
   maximum displ.:     0.0636628 α      in ANC's #37, #1, #29, ...

........................................................................
.............................. CYCLE    7 ..............................
........................................................................
   1    -83.3190118 -0.833190E+02  0.824E-02    0.69       0.0  T
   2    -83.3181264  0.885427E-03  0.119E-01    0.69       1.0  T
   3    -83.3182815 -0.155139E-03  0.116E-01    0.69       1.0  T
   4    -83.3190379 -0.756367E-03  0.131E-02    0.69       1.0  T
   5    -83.3190522 -0.143281E-04  0.255E-03    0.69       5.1  T
   6    -83.3190525 -0.262156E-06  0.180E-03    0.69       7.2  T
   7    -83.3190525 -0.828645E-07  0.113E-03    0.69      11.4  T
   8    -83.3190526 -0.737150E-07  0.183E-04    0.69      70.4  T
   9    -83.3190526 -0.104190E-08  0.586E-05    0.69     220.2  T
     SCC iter.                  ...        0 min,  0.025 sec
     gradient                   ...        0 min,  0.028 sec
 * total energy  :   -82.2577716 Eh     change       -0.1924340E-03 Eh
   gradient norm :     0.0285565 Eh/α   predicted    -0.2719183E-03 (  41.30%)
   displ. norm   :     0.0203212 α      lambda       -0.2850066E-03
   maximum displ.:     0.0073680 α      in ANC's #74, #117, #123, ...

........................................................................
.............................. CYCLE    8 ..............................
........................................................................
   1    -83.3210727 -0.833211E+02  0.158E-02    0.70       0.0  T
   2    -83.3210728 -0.913625E-07  0.979E-03    0.70       1.3  T
   3    -83.3210639  0.885783E-05  0.115E-02    0.70       1.1  T
   4    -83.3210639  0.245984E-07  0.114E-02    0.69       1.1  T
   5    -83.3210731 -0.920674E-05  0.147E-03    0.70       8.8  T
   6    -83.3210733 -0.159499E-06  0.253E-04    0.70      50.9  T
   7    -83.3210733 -0.119320E-08  0.150E-04    0.70      85.9  T
     SCC iter.                  ...        0 min,  0.019 sec
     gradient                   ...        0 min,  0.028 sec
 * total energy  :   -82.2579556 Eh     change       -0.1839790E-03 Eh
   gradient norm :     0.0070844 Eh/α   predicted    -0.1425655E-03 ( -22.51%)
   displ. norm   :     0.0456830 α      lambda       -0.1505671E-03
   maximum displ.:     0.0186663 α      in ANC's #37, #29, #17, ...

........................................................................
.............................. CYCLE    9 ..............................
........................................................................
   1    -83.3229849 -0.833230E+02  0.267E-02    0.69       0.0  T
   2    -83.3229843  0.635061E-06  0.161E-02    0.69       1.0  T
   3    -83.3228709  0.113311E-03  0.406E-02    0.69       1.0  T
   4    -83.3229849 -0.113955E-03  0.236E-03    0.69       5.5  T
   5    -83.3229853 -0.354648E-06  0.565E-04    0.69      22.9  T
   6    -83.3229853 -0.110311E-07  0.304E-04    0.69      42.5  T
     SCC iter.                  ...        0 min,  0.017 sec
     gradient                   ...        0 min,  0.028 sec
 * total energy  :   -82.2580549 Eh     change       -0.9932811E-04 Eh
   gradient norm :     0.0042887 Eh/α   predicted    -0.7552195E-04 ( -23.97%)
   displ. norm   :     0.0571914 α      lambda       -0.6668306E-04
   maximum displ.:     0.0264796 α      in ANC's #37, #29, #17, ...

........................................................................
.............................. CYCLE   10 ..............................
........................................................................
   1    -83.3234838 -0.833235E+02  0.293E-02    0.68       0.0  T
   2    -83.3234618  0.220321E-04  0.236E-02    0.68       1.0  T
   3    -83.3232315  0.230340E-03  0.625E-02    0.69       1.0  T
   4    -83.3234847 -0.253265E-03  0.160E-03    0.68       8.1  T
   5    -83.3234849 -0.163012E-06  0.615E-04    0.68      21.0  T
   6    -83.3234849 -0.213894E-07  0.281E-04    0.68      46.0  T
     SCC iter.                  ...        0 min,  0.016 sec
     gradient                   ...        0 min,  0.027 sec
 * total energy  :   -82.2581002 Eh     change       -0.4527731E-04 Eh
   gradient norm :     0.0044010 Eh/α   predicted    -0.3345423E-04 ( -26.11%)
   displ. norm   :     0.0374871 α      lambda       -0.3691036E-04
   maximum displ.:     0.0140928 α      in ANC's #15, #37, #29, ...

........................................................................
.............................. CYCLE   11 ..............................
........................................................................
   1    -83.3234382 -0.833234E+02  0.181E-02    0.68       0.0  T
   2    -83.3234273  0.109236E-04  0.156E-02    0.68       1.0  T
   3    -83.3233483  0.789535E-04  0.377E-02    0.68       1.0  T
   4    -83.3234384 -0.900544E-04  0.231E-03    0.68       5.6  T
   5    -83.3234388 -0.370226E-06  0.527E-04    0.68      24.5  T
   6    -83.3234388 -0.196919E-07  0.173E-04    0.68      74.6  T
     SCC iter.                  ...        0 min,  0.016 sec
     gradient                   ...        0 min,  0.027 sec
 * total energy  :   -82.2581267 Eh     change       -0.2647080E-04 Eh
   gradient norm :     0.0022278 Eh/α   predicted    -0.1849502E-04 ( -30.13%)
   displ. norm   :     0.0295763 α      lambda       -0.2888461E-04
   maximum displ.:     0.0123830 α      in ANC's #15, #17, #29, ...

........................................................................
.............................. CYCLE   12 ..............................
........................................................................
   1    -83.3231686 -0.833232E+02  0.128E-02    0.67       0.0  T
   2    -83.3231636  0.503175E-05  0.108E-02    0.67       1.2  T
   3    -83.3231230  0.405992E-04  0.268E-02    0.67       1.0  T
   4    -83.3231686 -0.456053E-04  0.227E-03    0.67       5.7  T
   5    -83.3231689 -0.323297E-06  0.520E-04    0.67      24.8  T
   6    -83.3231689 -0.202684E-07  0.155E-04    0.67      83.2  T
     SCC iter.                  ...        0 min,  0.017 sec
     gradient                   ...        0 min,  0.028 sec
 * total energy  :   -82.2581466 Eh     change       -0.1996471E-04 Eh
   gradient norm :     0.0021358 Eh/α   predicted    -0.1446058E-04 ( -27.57%)
   displ. norm   :     0.0188396 α      lambda       -0.1702526E-04
   maximum displ.:     0.0076040 α      in ANC's #15, #17, #39, ...

........................................................................
.............................. CYCLE   13 ..............................
........................................................................
   1    -83.3230374 -0.833230E+02  0.775E-03    0.67       0.0  T
   2    -83.3230367  0.651179E-06  0.546E-03    0.67       2.4  T
   3    -83.3230165  0.202315E-04  0.176E-02    0.67       1.0  T
   4    -83.3230373 -0.208513E-04  0.127E-03    0.67      10.2  T
   5    -83.3230374 -0.939120E-07  0.335E-04    0.67      38.5  T
   6    -83.3230374 -0.761445E-08  0.129E-04    0.67      99.8  T
     SCC iter.                  ...        0 min,  0.016 sec
     gradient                   ...        0 min,  0.028 sec
 * total energy  :   -82.2581587 Eh     change       -0.1200447E-04 Eh
   gradient norm :     0.0019374 Eh/α   predicted    -0.8539647E-05 ( -28.86%)
   displ. norm   :     0.0248135 α      lambda       -0.1193572E-04
   maximum displ.:     0.0097997 α      in ANC's #37, #15, #39, ...

........................................................................
.............................. CYCLE   14 ..............................
........................................................................
   1    -83.3230863 -0.833231E+02  0.108E-02    0.67       0.0  T
   2    -83.3230858  0.467994E-06  0.708E-03    0.67       1.8  T
   3    -83.3230463  0.395572E-04  0.240E-02    0.67       1.0  T
   4    -83.3230863 -0.400515E-04  0.936E-04    0.67      13.8  T
   5    -83.3230864 -0.452441E-07  0.402E-04    0.67      32.1  T
   6    -83.3230864 -0.114703E-07  0.153E-04    0.67      84.2  T
     SCC iter.                  ...        0 min,  0.016 sec
     gradient                   ...        0 min,  0.028 sec
 * total energy  :   -82.2581691 Eh     change       -0.1047351E-04 Eh
   gradient norm :     0.0014481 Eh/α   predicted    -0.5970921E-05 ( -42.99%)
   displ. norm   :     0.0131182 α      lambda       -0.6880087E-05
   maximum displ.:     0.0053011 α      in ANC's #15, #37, #16, ...

........................................................................
.............................. CYCLE   15 ..............................
........................................................................
   1    -83.3233202 -0.833233E+02  0.589E-03    0.67       0.0  T
   2    -83.3233197  0.547004E-06  0.470E-03    0.67       2.7  T
   3    -83.3233102  0.942842E-05  0.121E-02    0.67       1.1  T
   4    -83.3233202 -0.993442E-05  0.126E-03    0.67      10.3  T
   5    -83.3233203 -0.938901E-07  0.260E-04    0.67      49.6  T
   6    -83.3233203 -0.254744E-08  0.154E-04    0.67      84.0  T
     SCC iter.                  ...        0 min,  0.016 sec
     gradient                   ...        0 min,  0.027 sec
 * total energy  :   -82.2581775 Eh     change       -0.8339325E-05 Eh
   gradient norm :     0.0011879 Eh/α   predicted    -0.3452746E-05 ( -58.60%)
   displ. norm   :     0.0332938 α      lambda       -0.1192328E-04
   maximum displ.:     0.0165922 α      in ANC's #15, #16, #28, ...

........................................................................
.............................. CYCLE   16 ..............................
........................................................................
   1    -83.3235988 -0.833236E+02  0.126E-02    0.67       0.0  T
   2    -83.3235929  0.593724E-05  0.120E-02    0.67       1.1  T
   3    -83.3235658  0.270674E-04  0.227E-02    0.67       1.0  T
   4    -83.3235990 -0.332393E-04  0.131E-03    0.67       9.9  T
   5    -83.3235991 -0.858361E-07  0.491E-04    0.67      26.3  T
   6    -83.3235991 -0.891355E-08  0.240E-04    0.67      53.7  T
     SCC iter.                  ...        0 min,  0.017 sec
     gradient                   ...        0 min,  0.028 sec
 * total energy  :   -82.2581889 Eh     change       -0.1141152E-04 Eh
   gradient norm :     0.0012188 Eh/α   predicted    -0.5971038E-05 ( -47.68%)
   displ. norm   :     0.0174476 α      lambda       -0.4073874E-05
   maximum displ.:     0.0083792 α      in ANC's #15, #16, #28, ...

........................................................................
.............................. CYCLE   17 ..............................
........................................................................
   1    -83.3235862 -0.833236E+02  0.610E-03    0.67       0.0  T
   2    -83.3235856  0.593074E-06  0.463E-03    0.67       2.8  T
   3    -83.3235740  0.115494E-04  0.135E-02    0.67       1.0  T
   4    -83.3235862 -0.121717E-04  0.376E-04    0.67      34.4  T
   5    -83.3235862 -0.582187E-08  0.219E-04    0.67      59.0  T
   6    -83.3235862 -0.233290E-08  0.717E-05    0.67     180.2  T
     SCC iter.                  ...        0 min,  0.016 sec
     gradient                   ...        0 min,  0.027 sec
 * total energy  :   -82.2581935 Eh     change       -0.4580048E-05 Eh
   gradient norm :     0.0008918 Eh/α   predicted    -0.2040128E-05 ( -55.46%)
   displ. norm   :     0.0201412 α      lambda       -0.4192814E-05
   maximum displ.:     0.0092510 α      in ANC's #15, #16, #28, ...

   *** GEOMETRY OPTIMIZATION CONVERGED AFTER 17 ITERATIONS ***

------------------------------------------------------------------------
 total energy gain   :        -0.0879358 Eh      -55.1805 kcal/mol
 total RMSD          :         0.0635693 a0        0.0336 Å
 total power (kW/mol):       -13.5809000 (step) -245.5522 (real)
------------------------------------------------------------------------

 ANCopt (total)                0 d,  0 h,  0 min,  0.940 sec
 optimizer setup                ...        0 min,  0.000 sec (  0.008%)
 model hessian                  ...        0 min,  0.031 sec (  3.322%)
 ANC generation                 ...        0 min,  0.003 sec (  0.285%)
 coordinate transformation      ...        0 min,  0.000 sec (  0.026%)
 single point calculation       ...        0 min,  0.900 sec ( 95.695%)
 optimization log               ...        0 min,  0.004 sec (  0.394%)
 hessian update                 ...        0 min,  0.000 sec (  0.042%)
 rational function              ...        0 min,  0.001 sec (  0.154%)

================
 final structure:
================
60
 xtb: 6.5.0 (homebrew)
C            3.52248633706013      -37.80525379331299       15.95756068411218
C            3.70217160625534      -38.18659381761606       17.42542565530530
O            3.29506189764861      -37.09928829815831       18.25366008801421
C            2.78018936135660      -39.36858386986034       17.75330254989954
C            5.18867731598620      -38.43542644611897       17.86995935254880
C            5.59675599747538      -39.90369389583606       17.96787096268581
C            6.20296975518694      -37.68905757350115       16.99312748771866
O            5.24350037886637      -37.84037337586955       19.16463015434082
B            4.16921985108810      -36.99795955808601       19.30755152728868
C            3.94476202386726      -36.10223447123812       20.54259519204297
C            4.96101948077562      -35.92767127214259       21.47885902173630
C            4.98931220534441      -35.12951795335410       22.58918554549971
H            5.91792015868378      -35.04201578024387       23.13397715725861
C            3.90133521478125      -34.12676392687838       23.00288778548441
H            4.13294002802264      -33.79133653883802       24.01674502110332
C            2.53302545629694      -34.76679858494461       23.03660808673586
B            1.78494482234868      -34.86139525420797       24.40032002488800
O            2.27972800015633      -34.37726570855377       25.58058356718348
C            1.42148849558676      -34.78961439085812       26.64278002765577
C            1.24434215643650      -33.63930039685563       27.63149732955469
C            2.12054423771225      -35.95751706837973       27.35053576420209
C            0.11038659645271      -35.22698313679678       25.89288570414956
C           -0.94515719448274      -34.11538197359003       25.83343737942861
C           -0.54103324874803      -36.50152866964403       26.42531323297556
O            0.55940760349106      -35.44614177546594       24.55684565259106
C            1.99319350890572      -35.27081806154178       21.92717227880293
C            2.63855437447729      -35.26224481181688       20.57805548891412
H            1.96088614337930      -35.72534924616763       19.85768030112405
C            2.95889221598729      -33.86177809968112       20.05605305497250
C            3.60650230764585      -32.87447689722154       20.76434485785715
C            3.98034804824582      -32.90261984101816       22.08684619297581
H            4.56718768594856      -32.07989596335621       22.46786870990160
H            2.46189707368624      -37.67942213596675       15.75379864368652
H            3.91322745084184      -38.58915475647068       15.31429788644825
H            4.02153348186286      -36.86850507382069       15.73143945263013
H            1.75086572619032      -39.06324745599904       17.57934796352381
H            2.87736696082145      -39.63990793282498       18.80158029231686
H            3.00456970595730      -40.22756253967950       17.12783321902905
H            5.47777840997968      -40.39394590562748       17.00534108949000
H            5.00806925432576      -40.42423013241386       18.71617807771450
H            6.64136247863568      -39.95861095669334       18.26427962454233
H            6.25096308858074      -38.11611494414721       15.99589555121236
H            7.18303435333334      -37.76470157738271       17.45869054704612
H            5.94160876876805      -36.63548339019513       16.93116186658134
H            5.83723643577666      -36.54371644147710       21.30364541279975
H            2.20194730224683      -33.42686727648741       28.10045092097756
H            0.52895575898786      -33.91325105209778       28.40226153248797
H            0.90863710086584      -32.73799583849520       27.12898362846513
H            3.09362680590695      -35.61831112281023       27.69836996480390
H            2.28046335285138      -36.77625909848400       26.65350750152870
H            1.54232520110299      -36.30491429942347       28.20146451997761
H           -1.36153684438599      -33.91671318522163       26.81644020971714
H           -1.74396223445397      -34.43513129381991       25.16827891663717
H           -0.51269550323420      -33.20592860957104       25.42424382377612
H           -0.81106972575040      -36.37725344588282       27.47048192359540
H            0.12107907071238      -37.35457116233641       26.31939291317367
H           -1.44160134807726      -36.70161656844962       25.85019546337561
H            1.02111614476636      -35.73962443970733       21.99849937821051
H            2.83520360773849      -33.73568041977500       18.99123607772462
H            3.81019529972384      -31.95335849358517       20.22635775957573

 Bond Distances (Angstroems)
 ---------------------------
C1-C2=1.5272         C1-H33=1.0873        C1-H34=1.0867        C1-H35=1.0852        C2-C1=1.5272         C2-O3=1.4262         
C2-C4=1.5345         C2-C5=1.5714         O3-C2=1.4262         O3-B9=1.3730         C4-C2=1.5345         C4-H36=1.0877        
C4-H37=1.0872        C4-H38=1.0860        C5-C2=1.5714         C5-C6=1.5271         C5-C7=1.5345         C5-O8=1.4259         
C6-C5=1.5271         C6-H39=1.0867        C6-H40=1.0851        C6-H41=1.0872        C7-C5=1.5345         C7-H42=1.0859        
C7-H43=1.0877        C7-H44=1.0873        O8-C5=1.4259         O8-B9=1.3726         B9-O3=1.3730         B9-O8=1.3726         
B9-C10=1.5421        C10-B9=1.5421        C10-C11=1.3928       C10-C27=1.5534       C11-C10=1.3928       C11-C12=1.3677       
C11-H45=1.0853       C12-C11=1.3677       C12-H13=1.0802       C12-C14=1.5363       H13-C12=1.0802       C14-C12=1.5363       
C14-H15=1.0927       C14-C16=1.5110       C14-C31=1.5310       H15-C14=1.0927       C16-C14=1.5110       C16-B17=1.5583       
C16-C26=1.3328       B17-C16=1.5583       B17-O18=1.3683       B17-O25=1.3669       O18-B17=1.3683       O18-C19=1.4265       
C19-O18=1.4265       C19-C20=1.5271       C19-C21=1.5341       C19-C22=1.5725       C20-C19=1.5271       C20-H46=1.0872       
C20-H47=1.0867       C20-H48=1.0852       C21-C19=1.5341       C21-H49=1.0876       C21-H50=1.0871       C21-H51=1.0859       
C22-C19=1.5725       C22-C23=1.5341       C22-C24=1.5272       C22-O25=1.4264       C23-C22=1.5341       C23-H52=1.0859       
C23-H53=1.0876       C23-H54=1.0870       C24-C22=1.5272       C24-H55=1.0866       C24-H56=1.0850       C24-H57=1.0871       
O25-B17=1.3669       O25-C22=1.4264       C26-C16=1.3328       C26-C27=1.4956       C26-H58=1.0816       C27-C10=1.5534       
C27-C26=1.4956       C27-H28=1.0921       C27-C29=1.5285       H28-C27=1.0921       C29-C27=1.5285       C29-C30=1.3769       
C29-H59=1.0794       C30-C29=1.3769       C30-C31=1.3746       C30-H60=1.0860       C31-C14=1.5310       C31-C30=1.3746       
C31-H32=1.0800       H32-C31=1.0800       H33-C1=1.0873        H34-C1=1.0867        H35-C1=1.0852        H36-C4=1.0877        
H37-C4=1.0872        H38-C4=1.0860        H39-C6=1.0867        H40-C6=1.0851        H41-C6=1.0872        H42-C7=1.0859        
H43-C7=1.0877        H44-C7=1.0873        H45-C11=1.0853       H46-C20=1.0872       H47-C20=1.0867       H48-C20=1.0852       
H49-C21=1.0876       H50-C21=1.0871       H51-C21=1.0859       H52-C23=1.0859       H53-C23=1.0876       H54-C23=1.0870       
H55-C24=1.0866       H56-C24=1.0850       H57-C24=1.0871       H58-C26=1.0816       H59-C29=1.0794       H60-C30=1.0860       
 C  H  Rav=1.0861 sigma=0.0028  Rmin=1.0794  Rmax=1.0927    32
 C  B  Rav=1.5502 sigma=0.0081  Rmin=1.5421  Rmax=1.5583     2
 C  C  Rav=1.4948 sigma=0.0728  Rmin=1.3328  Rmax=1.5725    21
 O  B  Rav=1.3702 sigma=0.0027  Rmin=1.3669  Rmax=1.3730     4
 O  C  Rav=1.4262 sigma=0.0002  Rmin=1.4259  Rmax=1.4265     4

 selected bond angles (degree)
 --------------------
H33-C1-C2=108.89               H34-C1-C2=110.27               H34-C1-H33=108.86              H35-C1-C2=111.20               
H35-C1-H33=108.04              H35-C1-H34=109.51              O3-C2-C1=109.53                C4-C2-C1=109.09                
C4-C2-O3=106.96                C5-C2-C1=115.01                C5-C2-O3=103.09                C5-C2-C4=112.70                
B9-O3-C2=108.68                H36-C4-C2=108.55               H37-C4-C2=110.15               H37-C4-H36=107.99              
H38-C4-C2=111.23               H38-C4-H36=108.99              H38-C4-H37=109.84              C6-C5-C2=115.04                
C7-C5-C2=112.74                C7-C5-C6=109.13                O8-C5-C2=103.13                O8-C5-C6=109.44                
O8-C5-C7=106.88                H39-C6-C5=110.35               H40-C6-C5=111.13               H40-C6-H39=109.57              
H41-C6-C5=108.83               H41-C6-H39=108.90              H41-C6-H40=108.00              H42-C7-C5=111.27               
H43-C7-C5=108.49               H43-C7-H42=109.02              H44-C7-C5=110.18               H44-C7-H42=109.84              
H44-C7-H43=107.96              B9-O8-C5=108.70                O8-B9-O3=111.91                C10-B9-O3=124.40               
C10-B9-O8=123.63               C11-C10-B9=120.33              C27-C10-B9=117.05              C27-C10-C11=122.03             

 selected dihedral angles (degree)
 ---------------------------------
O3-C2-C1-H33=294.24           O3-C2-C1-H34=174.85           O3-C2-C1-H35= 53.17           C4-C2-C1-H33= 50.99           
C4-C2-C1-H34=291.61           C4-C2-C1-H35=169.93           C5-C2-C1-H33=178.73           C5-C2-C1-H34= 59.35           
C5-C2-C1-H35=297.67           B9-O3-C2-C1=219.68            B9-O3-C2-C4=101.58            B9-O3-C2-C5=342.56            
H36-C4-C2-C1=299.36           H36-C4-C2-O3= 57.73           H36-C4-C2-C5=170.33           H37-C4-C2-C1=181.31           
H37-C4-C2-O3=299.68           H37-C4-C2-C5= 52.28           H38-C4-C2-C1= 59.27           H38-C4-C2-O3=177.65           
H38-C4-C2-C5=290.24           C6-C5-C2-C1=259.17            C6-C5-C2-O3=140.02            C6-C5-C2-C4= 25.07            
C7-C5-C2-C1= 25.18            C7-C5-C2-O3=266.03            C7-C5-C2-C4=151.08            O8-C5-C2-C1=140.09            
O8-C5-C2-O3= 20.94            O8-C5-C2-C4=265.99            H39-C6-C5-C2= 59.60           H39-C6-C5-C7=291.75           
H39-C6-C5-O8=175.11           H40-C6-C5-C2=297.84           H40-C6-C5-C7=169.99           H40-C6-C5-O8= 53.35           
H41-C6-C5-C2=179.04           H41-C6-C5-C7= 51.19           H41-C6-C5-O8=294.55           H42-C7-C5-C2=290.14           
H42-C7-C5-C6= 59.27           H42-C7-C5-O8=177.52           H43-C7-C5-C2=170.21           H43-C7-C5-C6=299.34           
H43-C7-C5-O8= 57.59           H44-C7-C5-C2= 52.22           H44-C7-C5-C6=181.35           H44-C7-C5-O8=299.60           
B9-O8-C5-C2=342.73            B9-O8-C5-C6=219.84            B9-O8-C5-C7=101.79            O8-B9-O3-C2=  7.57            
C10-B9-O3-C2=190.51           O3-B9-O8-C5=  7.26            C10-B9-O8-C5=184.35           C11-C10-B9-O3=188.42          
C11-C10-B9-O8= 11.69          C27-C10-B9-O3=359.82          C27-C10-B9-O8=183.10          
           -------------------------------------------------
          |                Final Singlepoint                |
           -------------------------------------------------

          ...................................................
          :                      SETUP                      :
          :.................................................:
          :  # basis functions                 144          :
          :  # atomic orbitals                 144          :
          :  # shells                           88          :
          :  # electrons                       150          :
          :  max. iterations                   250          :
          :  Hamiltonian                  GFN2-xTB          :
          :  restarted?                      false          :
          :  GBSA solvation                  false          :
          :  PC potential                    false          :
          :  electronic temp.          300.0000000     K    :
          :  accuracy                    1.0000000          :
          :  -> integral cutoff          0.2500000E+02      :
          :  -> integral neglect         0.1000000E-07      :
          :  -> SCF convergence          0.1000000E-05 Eh   :
          :  -> wf. convergence          0.1000000E-03 e    :
          :  Broyden damping             0.4000000          :
          ...................................................

 iter      E             dE          RMSdq      gap      omega  full diag
   1    -83.3235862 -0.833236E+02  0.490E-05    0.67       0.0  T
   2    -83.3235862  0.867900E-09  0.116E-04    0.67     111.2  T
   3    -83.3235862 -0.760750E-09  0.615E-05    0.67     209.8  T

   *** convergence criteria satisfied after 3 iterations ***

         #    Occupation            Energy/Eh            Energy/eV
      -------------------------------------------------------------
         1        2.0000           -0.6855822             -18.6556
       ...           ...                  ...                  ...
        69        2.0000           -0.4038158             -10.9884
        70        2.0000           -0.3974205             -10.8144
        71        2.0000           -0.3952776             -10.7561
        72        2.0000           -0.3949491             -10.7471
        73        2.0000           -0.3897163             -10.6047
        74        2.0000           -0.3665146              -9.9734
        75        2.0000           -0.3205396              -8.7223 (HOMO)
        76        0.0000           -0.2958658              -8.0509 (LUMO)
        77                         -0.2158814              -5.8744
        78                         -0.1837638              -5.0005
        79                         -0.1572032              -4.2777
        80                         -0.0929872              -2.5303
       ...                                ...                  ...
       144                          0.6738684              18.3369
      -------------------------------------------------------------
                  HL-Gap            0.0246738 Eh            0.6714 eV
             Fermi-level           -0.3082027 Eh           -8.3866 eV

 SCC (total)                   0 d,  0 h,  0 min,  0.043 sec
 SCC setup                      ...        0 min,  0.000 sec (  0.529%)
 Dispersion                     ...        0 min,  0.000 sec (  0.878%)
 classical contributions        ...        0 min,  0.000 sec (  0.401%)
 integral evaluation            ...        0 min,  0.006 sec ( 13.853%)
 iterations                     ...        0 min,  0.009 sec ( 19.730%)
 molecular gradient             ...        0 min,  0.028 sec ( 63.780%)
 printout                       ...        0 min,  0.000 sec (  0.818%)

         :::::::::::::::::::::::::::::::::::::::::::::::::::::
         ::                     SUMMARY                     ::
         :::::::::::::::::::::::::::::::::::::::::::::::::::::
         :: total energy             -82.258193454346 Eh    ::
         :: gradient norm              0.000891818792 Eh/a0 ::
         :: HOMO-LUMO gap              0.671407321448 eV    ::
         ::.................................................::
         :: SCC energy               -83.323586212336 Eh    ::
         :: -> isotropic ES            0.147413227639 Eh    ::
         :: -> anisotropic ES          0.012715826233 Eh    ::
         :: -> anisotropic XC          0.028184199738 Eh    ::
         :: -> dispersion             -0.062048765778 Eh    ::
         :: repulsion energy           1.064368830934 Eh    ::
         :: add. restraining           0.000255736992 Eh    ::
         :: total charge              -0.000000000000 e     ::
         :::::::::::::::::::::::::::::::::::::::::::::::::::::

           -------------------------------------------------
          |                Property Printout                |
           -------------------------------------------------

    * Orbital Energies and Occupations

         #    Occupation            Energy/Eh            Energy/eV
      -------------------------------------------------------------
         1        2.0000           -0.6855822             -18.6556
       ...           ...                  ...                  ...
        63        2.0000           -0.4362645             -11.8714
        64        2.0000           -0.4307328             -11.7208
        65        2.0000           -0.4208287             -11.4513
        66        2.0000           -0.4187332             -11.3943
        67        2.0000           -0.4153137             -11.3013
        68        2.0000           -0.4128340             -11.2338
        69        2.0000           -0.4038158             -10.9884
        70        2.0000           -0.3974205             -10.8144
        71        2.0000           -0.3952776             -10.7561
        72        2.0000           -0.3949491             -10.7471
        73        2.0000           -0.3897163             -10.6047
        74        2.0000           -0.3665146              -9.9734
        75        2.0000           -0.3205396              -8.7223 (HOMO)
        76        0.0000           -0.2958658              -8.0509 (LUMO)
        77                         -0.2158814              -5.8744
        78                         -0.1837638              -5.0005
        79                         -0.1572032              -4.2777
        80                         -0.0929872              -2.5303
        81                         -0.0887479              -2.4150
        82                          0.0113934               0.3100
        83                          0.0142877               0.3888
        84                          0.0298669               0.8127
        85                          0.0306756               0.8347
        86                          0.0573069               1.5594
       ...                                ...                  ...
       144                          0.6738684              18.3369
      -------------------------------------------------------------
                  HL-Gap            0.0246738 Eh            0.6714 eV
             Fermi-level           -0.3082027 Eh           -8.3866 eV

     #   Z          covCN         q      C6AA      α(0)
     1   6 C        3.755    -0.116    22.786     6.806
     2   6 C        3.858     0.130    18.442     6.107
     3   8 O        1.638    -0.376    20.408     6.098
     4   6 C        3.755    -0.116    22.769     6.804
     5   6 C        3.858     0.130    18.441     6.107
     6   6 C        3.755    -0.117    22.794     6.808
     7   6 C        3.755    -0.115    22.757     6.802
     8   8 O        1.638    -0.376    20.396     6.096
     9   5 B        2.657     0.428    15.611     6.654
    10   6 C        2.866    -0.082    30.053     8.986
    11   6 C        2.891    -0.031    28.765     8.793
    12   6 C        2.891    -0.033    28.833     8.804
    13   1 H        0.926     0.030     2.583     2.513
    14   6 C        3.858    -0.016    20.828     6.491
    15   1 H        0.924     0.048     2.348     2.396
    16   6 C        2.866    -0.083    30.080     8.990
    17   5 B        2.660     0.430    15.580     6.645
    18   8 O        1.638    -0.371    20.297     6.081
    19   6 C        3.859     0.129    18.460     6.110
    20   6 C        3.755    -0.117    22.796     6.808
    21   6 C        3.755    -0.116    22.777     6.805
    22   6 C        3.859     0.129    18.458     6.110
    23   6 C        3.755    -0.116    22.783     6.806
    24   6 C        3.755    -0.117    22.805     6.809
    25   8 O        1.638    -0.370    20.293     6.081
    26   6 C        2.899    -0.026    28.659     8.778
    27   6 C        3.854    -0.016    20.817     6.489
    28   1 H        0.924     0.049     2.327     2.386
    29   6 C        2.894    -0.026    28.659     8.777
    30   6 C        2.888    -0.030    28.745     8.790
    31   6 C        2.893    -0.028    28.694     8.783
    32   1 H        0.926     0.032     2.557     2.501
    33   1 H        0.925     0.054     2.276     2.359
    34   1 H        0.925     0.039     2.466     2.456
    35   1 H        0.925     0.051     2.311     2.377
    36   1 H        0.925     0.051     2.304     2.374
    37   1 H        0.925     0.043     2.403     2.424
    38   1 H        0.925     0.042     2.428     2.437
    39   1 H        0.925     0.039     2.464     2.455
    40   1 H        0.925     0.052     2.297     2.370
    41   1 H        0.925     0.053     2.277     2.360
    42   1 H        0.925     0.042     2.426     2.436
    43   1 H        0.925     0.051     2.309     2.376
    44   1 H        0.925     0.042     2.421     2.433
    45   1 H        0.925     0.037     2.482     2.464
    46   1 H        0.925     0.054     2.272     2.357
    47   1 H        0.925     0.039     2.458     2.452
    48   1 H        0.925     0.052     2.300     2.372
    49   1 H        0.925     0.052     2.298     2.371
    50   1 H        0.925     0.044     2.399     2.422
    51   1 H        0.925     0.042     2.422     2.434
    52   1 H        0.925     0.042     2.418     2.432
    53   1 H        0.925     0.052     2.292     2.368
    54   1 H        0.925     0.044     2.402     2.424
    55   1 H        0.925     0.040     2.454     2.450
    56   1 H        0.925     0.052     2.296     2.370
    57   1 H        0.925     0.054     2.268     2.355
    58   1 H        0.925     0.037     2.496     2.470
    59   1 H        0.926     0.035     2.516     2.481
    60   1 H        0.925     0.028     2.611     2.527

 Mol. C6AA /au·bohr⁶  :      33345.962966
 Mol. C8AA /au·bohr⁸  :     773761.370810
 Mol. α(0) /au        :        277.615593


Wiberg/Mayer (AO) data.
largest (>0.10) Wiberg bond orders for each atom

 ---------------------------------------------------------------------------
     #   Z sym  total        # sym  WBO       # sym  WBO       # sym  WBO
 ---------------------------------------------------------------------------
     1   6 C    3.994 --     2 C    0.996    34 H    0.985    33 H    0.983
                            35 H    0.983
     2   6 C    3.944 --     1 C    0.996     4 C    0.990     3 O    0.955
                             5 C    0.937
     3   8 O    2.217 --     9 B    1.110     2 C    0.955
     4   6 C    3.994 --     2 C    0.990    38 H    0.984    37 H    0.984
                            36 H    0.983
     5   6 C    3.943 --     6 C    0.996     7 C    0.990     8 O    0.955
                             2 C    0.937
     6   6 C    3.994 --     5 C    0.996    39 H    0.985    41 H    0.983
                            40 H    0.982
     7   6 C    3.994 --     5 C    0.990    42 H    0.985    44 H    0.984
                            43 H    0.983
     8   8 O    2.218 --     9 B    1.111     5 C    0.955
     9   5 B    3.390 --     8 O    1.111     3 O    1.110    10 C    1.036
    10   6 C    3.938 --    11 C    1.404     9 B    1.036    27 C    0.941
                            29 C    0.245    31 C    0.182
    11   6 C    3.991 --    12 C    1.542    10 C    1.404    45 H    0.959
    12   6 C    3.961 --    11 C    1.542    13 H    0.972    14 C    0.968
                            31 C    0.222    29 C    0.168
    13   1 H    0.999 --    12 C    0.972
    14   6 C    3.993 --    16 C    0.991    31 C    0.981    15 H    0.971
                            12 C    0.968
    15   1 H    0.998 --    14 C    0.971
    16   6 C    3.977 --    26 C    1.857    17 B    1.001    14 C    0.991
    17   5 B    3.376 --    25 O    1.130    18 O    1.127    16 C    1.001
    18   8 O    2.234 --    17 B    1.127    19 C    0.954
    19   6 C    3.943 --    20 C    0.997    21 C    0.991    18 O    0.954
                            22 C    0.936
    20   6 C    3.994 --    19 C    0.997    47 H    0.985    46 H    0.983
                            48 H    0.982
    21   6 C    3.994 --    19 C    0.991    51 H    0.985    50 H    0.984
                            49 H    0.983
    22   6 C    3.943 --    24 C    0.996    23 C    0.990    25 O    0.954
                            19 C    0.936
    23   6 C    3.995 --    22 C    0.990    52 H    0.984    54 H    0.984
                            53 H    0.983
    24   6 C    3.994 --    22 C    0.996    55 H    0.985    57 H    0.983
                            56 H    0.982
    25   8 O    2.235 --    17 B    1.130    22 C    0.954
    26   6 C    3.987 --    16 C    1.857    27 C    1.012    58 H    0.966
    27   6 C    3.992 --    26 C    1.012    29 C    0.984    28 H    0.970
                            10 C    0.941
    28   1 H    0.997 --    27 C    0.970
    29   6 C    3.954 --    30 C    1.475    27 C    0.984    59 H    0.973
                            10 C    0.245    12 C    0.168
    30   6 C    3.993 --    31 C    1.493    29 C    1.475    60 H    0.961
    31   6 C    3.942 --    30 C    1.493    14 C    0.981    32 H    0.973
                            12 C    0.222    10 C    0.182
    32   1 H    0.999 --    31 C    0.973
    33   1 H    0.997 --     1 C    0.983
    34   1 H    0.998 --     1 C    0.985
    35   1 H    0.997 --     1 C    0.983
    36   1 H    0.997 --     4 C    0.983
    37   1 H    0.998 --     4 C    0.984
    38   1 H    0.998 --     4 C    0.984
    39   1 H    0.998 --     6 C    0.985
    40   1 H    0.997 --     6 C    0.982
    41   1 H    0.997 --     6 C    0.983
    42   1 H    0.998 --     7 C    0.985
    43   1 H    0.997 --     7 C    0.983
    44   1 H    0.998 --     7 C    0.984
    45   1 H    0.998 --    11 C    0.959
    46   1 H    0.997 --    20 C    0.983
    47   1 H    0.998 --    20 C    0.985
    48   1 H    0.997 --    20 C    0.982
    49   1 H    0.997 --    21 C    0.983
    50   1 H    0.998 --    21 C    0.984
    51   1 H    0.998 --    21 C    0.985
    52   1 H    0.998 --    23 C    0.984
    53   1 H    0.997 --    23 C    0.983
    54   1 H    0.998 --    23 C    0.984
    55   1 H    0.998 --    24 C    0.985
    56   1 H    0.997 --    24 C    0.982
    57   1 H    0.997 --    24 C    0.983
    58   1 H    0.999 --    26 C    0.966
    59   1 H    0.998 --    29 C    0.973
    60   1 H    0.999 --    30 C    0.961
 ---------------------------------------------------------------------------

Topologies differ in total number of bonds
Writing topology from bond orders to xtbtopo.mol

molecular dipole:
                 x           y           z       tot (Debye)
 q only:       -0.256      -0.289       0.114
   full:       -0.076      -0.334      -0.028       0.873
molecular quadrupole (traceless):
                xx          xy          yy          xz          yz          zz
 q only:      -36.134      21.784      30.242     -26.080     -21.172       5.892
  q+dip:      -32.148       4.965      39.248     -16.187      -7.824      -7.100
   full:      -32.273       4.054      40.531     -17.865      -9.134      -8.258

           -------------------------------------------------
          |                Geometry Summary                 |
           -------------------------------------------------

      molecular mass/u    :      382.1099696
   center of mass at/Å    :        2.9524881     -35.9203925      21.8305263
  moments of inertia/u·Å² :        0.1307683E+04   0.6671806E+04   0.6988936E+04
rotational constants/cm⁻¹ :        0.1289122E-01   0.2526697E-02   0.2412046E-02

 * 55 selected distances

     #   Z          #   Z                                           value/Å
     1   6 C        2   6 C                                       1.5271984
     2   6 C        3   8 O                                       1.4261642
     2   6 C        4   6 C                                       1.5344887
     5   6 C        6   6 C                                       1.5270641
     5   6 C        7   6 C                                       1.5345000
     5   6 C        8   8 O                                       1.4259266
     3   8 O        9   5 B                                       1.3729920
     8   8 O        9   5 B                                       1.3726495
     9   5 B       10   6 C                                       1.5420889
    10   6 C       11   6 C                                       1.3927821
    11   6 C       12   6 C                                       1.3677260
    12   6 C       13   1 H                                       1.0801701
    14   6 C       15   1 H                                       1.0927301
    16   6 C       17   5 B                                       1.5582952 (max)
    17   5 B       18   8 O                                       1.3682888
    18   8 O       19   6 C                                       1.4264881
    19   6 C       20   6 C                                       1.5271429
    19   6 C       21   6 C                                       1.5341428
    22   6 C       23   6 C                                       1.5340679
    22   6 C       24   6 C                                       1.5271849
    17   5 B       25   8 O                                       1.3668835
    22   6 C       25   8 O                                       1.4264129
    16   6 C       26   6 C                                       1.3327799
    27   6 C       28   1 H                                       1.0920808
    29   6 C       30   6 C                                       1.3768951
    30   6 C       31   6 C                                       1.3746137
    31   6 C       32   1 H                                       1.0800156
     1   6 C       33   1 H                                       1.0872913
     1   6 C       34   1 H                                       1.0867229
     1   6 C       35   1 H                                       1.0852084
     4   6 C       36   1 H                                       1.0876571
     4   6 C       37   1 H                                       1.0871737
     4   6 C       38   1 H                                       1.0860032
     6   6 C       39   1 H                                       1.0867229
     6   6 C       40   1 H                                       1.0851147
     6   6 C       41   1 H                                       1.0872336
     7   6 C       42   1 H                                       1.0858882
     7   6 C       43   1 H                                       1.0876570
     7   6 C       44   1 H                                       1.0872755
    11   6 C       45   1 H                                       1.0853423
    20   6 C       46   1 H                                       1.0872227
    20   6 C       47   1 H                                       1.0866942
    20   6 C       48   1 H                                       1.0851581
    21   6 C       49   1 H                                       1.0876301
    21   6 C       50   1 H                                       1.0870884
    21   6 C       51   1 H                                       1.0858647
    23   6 C       52   1 H                                       1.0858803
    23   6 C       53   1 H                                       1.0875501
    23   6 C       54   1 H                                       1.0869996
    24   6 C       55   1 H                                       1.0866195
    24   6 C       56   1 H                                       1.0850316
    24   6 C       57   1 H                                       1.0871149
    26   6 C       58   1 H                                       1.0815737
    29   6 C       59   1 H                                       1.0793678 (min)
    30   6 C       60   1 H                                       1.0859928

 * 5 distinct bonds (by element types)

   Z      Z             #   av. dist./Å        max./Å        min./Å
   1 H    6 C          32     1.0861274     1.0927301     1.0793678
   5 B    6 C           2     1.5501920     1.5582952     1.5420889
   6 C    6 C          13     1.4685066     1.5345000     1.3327799
   5 B    8 O           4     1.3702035     1.3729920     1.3668835
   6 C    8 O           4     1.4262479     1.4264881     1.4259266


optimized geometry written to: xtbopt.xyz


           -------------------------------------------------
          | TOTAL ENERGY              -82.258193454346 Eh   |
          | GRADIENT NORM               0.000891818792 Eh/α |
          | HOMO-LUMO GAP               0.671407321448 eV   |
           -------------------------------------------------

------------------------------------------------------------------------
 * finished run on 2022/07/09 at 18:33:21.362     
------------------------------------------------------------------------
 total:
 * wall-time:     0 d,  0 h,  0 min,  1.077 sec
 *  cpu-time:     0 d,  0 h,  0 min,  1.074 sec
 * ratio c/w:     0.998 speedup
 SCF:
 * wall-time:     0 d,  0 h,  0 min,  0.080 sec
 *  cpu-time:     0 d,  0 h,  0 min,  0.079 sec
 * ratio c/w:     0.988 speedup
 ANC optimizer:
 * wall-time:     0 d,  0 h,  0 min,  0.985 sec
 *  cpu-time:     0 d,  0 h,  0 min,  0.983 sec
 * ratio c/w:     0.998 speedup

