      -----------------------------------------------------------      
     |                   =====================                   |     
     |                           x T B                           |     
     |                   =====================                   |     
     |                         S. Grimme                         |     
     |          Mulliken Center for Theoretical Chemistry        |     
     |                    University of Bonn                     |     
      -----------------------------------------------------------      

   * xtb version 6.5.0 (homebrew) compiled by 'nhattrup@GPGGRP-SHANNON.CHEME.CMU.EDU' on 

   xtb is free software: you can redistribute it and/or modify it under
   the terms of the GNU Lesser General Public License as published by
   the Free Software Foundation, either version 3 of the License, or
   (at your option) any later version.
   
   xtb is distributed in the hope that it will be useful,
   but WITHOUT ANY WARRANTY; without even the implied warranty of
   MERCHANTABILITY or FITNESS FOR A PARTICULAR PURPOSE.  See the
   GNU Lesser General Public License for more details.
   
   Cite this work as:
   * C. Bannwarth, E. Caldeweyher, S. Ehlert, A. Hansen, P. Pracht,
     J. Seibert, S. Spicher, S. Grimme, WIREs Comput. Mol. Sci., 2020, 11,
     e01493. DOI: 10.1002/wcms.1493
   
   for GFN2-xTB:
   * C. Bannwarth, S. Ehlert and S. Grimme., J. Chem. Theory Comput., 2019,
     15, 1652-1671. DOI: 10.1021/acs.jctc.8b01176
   for GFN1-xTB:
   * S. Grimme, C. Bannwarth, P. Shushkov, J. Chem. Theory Comput., 2017,
     13, 1989-2009. DOI: 10.1021/acs.jctc.7b00118
   for GFN0-xTB:
   * P. Pracht, E. Caldeweyher, S. Ehlert, S. Grimme, ChemRxiv, 2019, preprint.
     DOI: 10.26434/chemrxiv.8326202.v1
   for GFN-FF:
   * S. Spicher and S. Grimme, Angew. Chem. Int. Ed., 2020, 59, 15665-15673.
     DOI: 10.1002/anie.202004239
   
   for ALPB and GBSA implicit solvation:
   * S. Ehlert, M. Stahn, S. Spicher, S. Grimme, J. Chem. Theory Comput.,
     2021, 17, 4250-4261. DOI: 10.1021/acs.jctc.1c00471
   
   for DFT-D4:
   * E. Caldeweyher, C. Bannwarth and S. Grimme, J. Chem. Phys., 2017,
     147, 034112. DOI: 10.1063/1.4993215
   * E. Caldeweyher, S. Ehlert, A. Hansen, H. Neugebauer, S. Spicher,
     C. Bannwarth and S. Grimme, J. Chem. Phys., 2019, 150, 154122.
     DOI: 10.1063/1.5090222
   * E. Caldeweyher, J.-M. Mewes, S. Ehlert and S. Grimme, Phys. Chem. Chem. Phys.
     2020, 22, 8499-8512. DOI: 10.1039/D0CP00502A
   
   for sTDA-xTB:
   * S. Grimme and C. Bannwarth, J. Chem. Phys., 2016, 145, 054103.
     DOI: 10.1063/1.4959605
   
   in the mass-spec context:
   * V. Asgeirsson, C. Bauer and S. Grimme, Chem. Sci., 2017, 8, 4879.
     DOI: 10.1039/c7sc00601b
   * J. Koopman and S. Grimme, ACS Omega 2019, 4, 12, 15120-15133.
     DOI: 10.1021/acsomega.9b02011
   
   for metadynamics refer to:
   * S. Grimme, J. Chem. Theory Comput., 2019, 155, 2847-2862
     DOI: 10.1021/acs.jctc.9b00143
   
   for SPH calculations refer to:
   * S. Spicher and S. Grimme, J. Chem. Theory Comput., 2021, 17, 1701-1714
     DOI: 10.1021/acs.jctc.0c01306
   
   with help from (in alphabetical order)
   P. Atkinson, C. Bannwarth, F. Bohle, G. Brandenburg, E. Caldeweyher
   M. Checinski, S. Dohm, S. Ehlert, S. Ehrlich, I. Gerasimov, C. Hölzer
   A. Katbashev, J. Koopman, C. Lavigne, S. Lehtola, F. März, M. Müller,
   F. Musil, H. Neugebauer, J. Pisarek, C. Plett, P. Pracht, F. Pultar,
   J. Seibert, P. Shushkov, S. Spicher, M. Stahn, M. Steiner, T. Strunk,
   J. Stückrath, T. Rose, and J. Unsleber
   
 * started run on 2022/07/09 at 18:32:47.780     

           -------------------------------------------------
          |                Calculation Setup                |
           -------------------------------------------------

          program call               : /opt/homebrew/bin/xtb bvl_bpin2_scan_0-0_xtb.xyz --chrg 0 --uhf 0 --opt --input xcontrol_bvl_bpin2_scan_0-0_xtb
          coordinate file            : bvl_bpin2_scan_0-0_xtb.xyz
          omp threads                :                     4

   ID    Z sym.   atoms
    1    6 C      1, 2, 4-7, 10-12, 14, 16, 19-24, 26, 27, 29-31
    2    8 O      3, 8, 18, 25
    3    5 B      9, 17
    4    1 H      13, 15, 28, 32-60
constraining bond 12 31 to    1.5000000 Å, actual value:    1.5360358 Å
constraining bond 10 29 to    2.5000000 Å, actual value:    2.4978138 Å

           -------------------------------------------------
          |                 G F N 2 - x T B                 |
           -------------------------------------------------

        Reference                      10.1021/acs.jctc.8b01176
      * Hamiltonian:
        H0-scaling (s, p, d)           1.850000    2.230000    2.230000
        zeta-weighting                 0.500000
      * Dispersion:
        s8                             2.700000
        a1                             0.520000
        a2                             5.000000
        s9                             5.000000
      * Repulsion:
        kExp                           1.500000    1.000000
        rExp                           1.000000
      * Coulomb:
        alpha                          2.000000
        third order                    shell-resolved
        anisotropic                    true
        a3                             3.000000
        a5                             4.000000
        cn-shift                       1.200000
        cn-exp                         4.000000
        max-rad                        5.000000


          ...................................................
          :                      SETUP                      :
          :.................................................:
          :  # basis functions                 144          :
          :  # atomic orbitals                 144          :
          :  # shells                           88          :
          :  # electrons                       150          :
          :  max. iterations                   250          :
          :  Hamiltonian                  GFN2-xTB          :
          :  restarted?                      false          :
          :  GBSA solvation                  false          :
          :  PC potential                    false          :
          :  electronic temp.          300.0000000     K    :
          :  accuracy                    1.0000000          :
          :  -> integral cutoff          0.2500000E+02      :
          :  -> integral neglect         0.1000000E-07      :
          :  -> SCF convergence          0.1000000E-05 Eh   :
          :  -> wf. convergence          0.1000000E-03 e    :
          :  Broyden damping             0.4000000          :
          ...................................................

 iter      E             dE          RMSdq      gap      omega  full diag
   1    -82.6428011 -0.826428E+02  0.480E+00    3.51       0.0  T
   2    -83.0456904 -0.402889E+00  0.310E+00    2.46       1.0  T
   3    -83.0844440 -0.387536E-01  0.162E+00    3.36       1.0  T
   4    -83.1334271 -0.489830E-01  0.554E-01    3.02       1.0  T
   5    -83.1556454 -0.222183E-01  0.241E-01    3.14       1.0  T
   6    -83.1572898 -0.164439E-02  0.144E-01    3.18       1.0  T
   7    -83.1575422 -0.252403E-03  0.581E-02    3.16       1.0  T
   8    -83.1576930 -0.150789E-03  0.227E-02    3.16       1.0  T
   9    -83.1577175 -0.245673E-04  0.699E-03    3.15       1.8  T
  10    -83.1577178 -0.262019E-06  0.377E-03    3.15       3.4  T
  11    -83.1577182 -0.435983E-06  0.126E-03    3.15      10.2  T
  12    -83.1577183 -0.839677E-07  0.451E-04    3.15      28.6  T
  13    -83.1577183  0.385656E-08  0.362E-04    3.15      35.6  T

   *** convergence criteria satisfied after 13 iterations ***

         #    Occupation            Energy/Eh            Energy/eV
      -------------------------------------------------------------
         1        2.0000           -0.6871726             -18.6989
       ...           ...                  ...                  ...
        69        2.0000           -0.4109210             -11.1817
        70        2.0000           -0.4044434             -11.0055
        71        2.0000           -0.3948495             -10.7444
        72        2.0000           -0.3947446             -10.7415
        73        2.0000           -0.3905651             -10.6278
        74        2.0000           -0.3639923              -9.9047
        75        2.0000           -0.3571328              -9.7181 (HOMO)
        76                         -0.2412485              -6.5647 (LUMO)
        77                         -0.2375286              -6.4635
        78                         -0.2002762              -5.4498
        79                         -0.1493188              -4.0632
        80                         -0.1470301              -4.0009
       ...                                ...                  ...
       144                          0.6079402              16.5429
      -------------------------------------------------------------
                  HL-Gap            0.1158842 Eh            3.1534 eV
             Fermi-level           -0.2991906 Eh           -8.1414 eV

 SCC (total)                   0 d,  0 h,  0 min,  0.100 sec
 SCC setup                      ...        0 min,  0.000 sec (  0.142%)
 Dispersion                     ...        0 min,  0.000 sec (  0.323%)
 classical contributions        ...        0 min,  0.000 sec (  0.085%)
 integral evaluation            ...        0 min,  0.002 sec (  1.937%)
 iterations                     ...        0 min,  0.087 sec ( 87.393%)
 molecular gradient             ...        0 min,  0.010 sec (  9.827%)
 printout                       ...        0 min,  0.000 sec (  0.288%)

         :::::::::::::::::::::::::::::::::::::::::::::::::::::
         ::                     SUMMARY                     ::
         :::::::::::::::::::::::::::::::::::::::::::::::::::::
         :: total energy             -82.221345108509 Eh    ::
         :: gradient norm              0.430906147114 Eh/a0 ::
         :: HOMO-LUMO gap              3.153370458797 eV    ::
         ::.................................................::
         :: SCC energy               -83.157718314509 Eh    ::
         :: -> isotropic ES            0.144139382998 Eh    ::
         :: -> anisotropic ES          0.017221344478 Eh    ::
         :: -> anisotropic XC          0.030962284851 Eh    ::
         :: -> dispersion             -0.061420861834 Eh    ::
         :: repulsion energy           0.926172570741 Eh    ::
         :: add. restraining           0.009308771287 Eh    ::
         :: total charge              -0.000000000000 e     ::
         :::::::::::::::::::::::::::::::::::::::::::::::::::::

      ----------------------------------------------------------- 
     |                   =====================                   |
     |                        A N C O P T                        |
     |                   =====================                   |
     |               Approximate Normal Coordinate               |
     |                Rational Function Optimizer                |
      ----------------------------------------------------------- 

          ...................................................
          :                      SETUP                      :
          :.................................................:
          :   optimization level            normal          :
          :   max. optcycles                   200          :
          :   ANC micro-cycles                  20          :
          :   degrees of freedom               174          :
          :.................................................:
          :   RF solver                   davidson          :
          :   write xtbopt.log                true          :
          :   linear?                        false          :
          :   energy convergence         0.5000000E-05 Eh   :
          :   grad. convergence          0.1000000E-02 Eh/α :
          :   maximium RF displ.         1.0000000          :
          :   Hlow (freq-cutoff)         0.1000000E-01      :
          :   Hmax (freq-cutoff)         5.0000000          :
          :   S6 in model hess.         20.0000000          :
          ...................................................

generating ANC from model Hessian ...
Using Lindh-Hessian (1995)
 Shifting diagonal of input Hessian by    9.9568085255167908E-003
 Lowest  eigenvalues of input Hessian
    0.000000    0.000000    0.000000    0.000000    0.000000    0.000000
    0.010000    0.010021    0.010092    0.010711    0.011198    0.011633
    0.011939    0.012832    0.012955    0.014154    0.014380    0.014684
 Highest eigenvalues
    1.503395    1.775981    1.785381    1.852613    8.756787    9.220994


........................................................................
.............................. CYCLE    1 ..............................
........................................................................
   1    -83.1577183 -0.831577E+02  0.127E-04    3.15       0.0  T
   2    -83.1577183 -0.582801E-09  0.801E-05    3.15     161.2  T
   3    -83.1577183 -0.528544E-09  0.260E-05    3.15     496.9  T
     SCC iter.                  ...        0 min,  0.021 sec
     gradient                   ...        0 min,  0.010 sec
 * total energy  :   -82.2213451 Eh     change       -0.9031282E-08 Eh
   gradient norm :     0.4309086 Eh/α   predicted     0.0000000E+00 (-100.00%)
   displ. norm   :     0.4194792 α      lambda       -0.1028209E+00
   maximum displ.:     0.2110458 α      in ANC's #112, #111, #117, ...

........................................................................
.............................. CYCLE    2 ..............................
........................................................................
   1    -83.2938751 -0.832939E+02  0.343E-01    3.38       0.0  T
   2    -83.2939935 -0.118454E-03  0.205E-01    3.38       1.0  T
   3    -83.2936843  0.309219E-03  0.795E-02    3.38       1.0  T
   4    -83.2940175 -0.333163E-03  0.226E-02    3.37       1.0  T
   5    -83.2940435 -0.260872E-04  0.843E-03    3.37       1.5  T
   6    -83.2940446 -0.109300E-05  0.416E-03    3.37       3.1  T
   7    -83.2940449 -0.292306E-06  0.208E-03    3.37       6.2  T
   8    -83.2940450 -0.121625E-06  0.808E-04    3.37      16.0  T
   9    -83.2940451 -0.117989E-07  0.313E-04    3.37      41.3  T
     SCC iter.                  ...        0 min,  0.060 sec
     gradient                   ...        0 min,  0.010 sec
 * total energy  :   -82.2817088 Eh     change       -0.6036369E-01 Eh
   gradient norm :     0.2641292 Eh/α   predicted    -0.6046784E-01 (   0.17%)
   displ. norm   :     0.4295834 α      lambda       -0.4536248E-01
   maximum displ.:     0.2077453 α      in ANC's #112, #117, #111, ...

........................................................................
.............................. CYCLE    3 ..............................
........................................................................
   1    -83.3841986 -0.833842E+02  0.311E-01    3.49       0.0  T
   2    -83.3843206 -0.122026E-03  0.186E-01    3.49       1.0  T
   3    -83.3841493  0.171283E-03  0.575E-02    3.49       1.0  T
   4    -83.3843484 -0.199123E-03  0.170E-02    3.49       1.0  T
   5    -83.3843598 -0.113297E-04  0.734E-03    3.49       1.8  T
   6    -83.3843606 -0.799609E-06  0.401E-03    3.49       3.2  T
   7    -83.3843609 -0.365340E-06  0.213E-03    3.49       6.1  T
   8    -83.3843611 -0.141646E-06  0.667E-04    3.49      19.4  T
   9    -83.3843611 -0.369147E-08  0.263E-04    3.49      49.0  T
     SCC iter.                  ...        0 min,  0.060 sec
     gradient                   ...        0 min,  0.010 sec
 * total energy  :   -82.3029466 Eh     change       -0.2123775E-01 Eh
   gradient norm :     0.1652696 Eh/α   predicted    -0.2686696E-01 (  26.51%)
   displ. norm   :     0.3627049 α      lambda       -0.8327129E-02
   maximum displ.:     0.1748355 α      in ANC's #8, #36, #13, ...

........................................................................
.............................. CYCLE    4 ..............................
........................................................................
   1    -83.3915860 -0.833916E+02  0.154E-01    3.53       0.0  T
   2    -83.3916027 -0.166616E-04  0.923E-02    3.53       1.0  T
   3    -83.3914735  0.129128E-03  0.479E-02    3.52       1.0  T
   4    -83.3916137 -0.140173E-03  0.851E-03    3.53       1.5  T
   5    -83.3916170 -0.326045E-05  0.283E-03    3.53       4.6  T
   6    -83.3916171 -0.951686E-07  0.168E-03    3.53       7.7  T
   7    -83.3916171 -0.680732E-07  0.631E-04    3.53      20.5  T
   8    -83.3916171 -0.767972E-08  0.183E-04    3.53      70.4  T
     SCC iter.                  ...        0 min,  0.054 sec
     gradient                   ...        0 min,  0.010 sec
 * total energy  :   -82.3084776 Eh     change       -0.5531082E-02 Eh
   gradient norm :     0.0300729 Eh/α   predicted    -0.4711303E-02 ( -14.82%)
   displ. norm   :     0.4582340 α      lambda       -0.4234093E-02
   maximum displ.:     0.2722971 α      in ANC's #8, #36, #13, ...

........................................................................
.............................. CYCLE    5 ..............................
........................................................................
   1    -83.3914236 -0.833914E+02  0.164E-01    3.55       0.0  T
   2    -83.3914326 -0.901458E-05  0.968E-02    3.55       1.0  T
   3    -83.3914172  0.153747E-04  0.173E-02    3.55       1.0  T
   4    -83.3914327 -0.155295E-04  0.650E-03    3.55       2.0  T
   5    -83.3914349 -0.211918E-05  0.199E-03    3.55       6.5  T
   6    -83.3914349 -0.268396E-07  0.129E-03    3.55      10.0  T
   7    -83.3914349 -0.421564E-07  0.402E-04    3.55      32.1  T
   8    -83.3914349 -0.446254E-08  0.114E-04    3.55     113.3  T
     SCC iter.                  ...        0 min,  0.054 sec
     gradient                   ...        0 min,  0.011 sec
 * total energy  :   -82.3116365 Eh     change       -0.3158863E-02 Eh
   gradient norm :     0.0265182 Eh/α   predicted    -0.2561650E-02 ( -18.91%)
   displ. norm   :     0.5273269 α      lambda       -0.3123882E-02
   maximum displ.:     0.3577960 α      in ANC's #8, #36, #13, ...

........................................................................
.............................. CYCLE    6 ..............................
........................................................................
   1    -83.3909857 -0.833910E+02  0.152E-01    3.54       0.0  T
   2    -83.3909904 -0.478648E-05  0.900E-02    3.55       1.0  T
   3    -83.3909697  0.207533E-04  0.193E-02    3.54       1.0  T
   4    -83.3909921 -0.223941E-04  0.431E-03    3.55       3.0  T
   5    -83.3909929 -0.838315E-06  0.162E-03    3.55       8.0  T
   6    -83.3909929 -0.294762E-07  0.103E-03    3.55      12.6  T
   7    -83.3909930 -0.264352E-07  0.303E-04    3.55      42.6  T
   8    -83.3909930 -0.294143E-08  0.874E-05    3.55     147.7  T
     SCC iter.                  ...        0 min,  0.055 sec
     gradient                   ...        0 min,  0.010 sec
 * total energy  :   -82.3138720 Eh     change       -0.2235531E-02 Eh
   gradient norm :     0.0360305 Eh/α   predicted    -0.1996280E-02 ( -10.70%)
   displ. norm   :     0.4851109 α      lambda       -0.1969373E-02
   maximum displ.:     0.3629726 α      in ANC's #8, #3, #30, ...

........................................................................
.............................. CYCLE    7 ..............................
........................................................................
   1    -83.3912733 -0.833913E+02  0.123E-01    3.54       0.0  T
   2    -83.3912757 -0.246553E-05  0.730E-02    3.54       1.0  T
   3    -83.3912352  0.405786E-04  0.257E-02    3.54       1.0  T
   4    -83.3912789 -0.437588E-04  0.339E-03    3.54       3.8  T
   5    -83.3912794 -0.476911E-06  0.147E-03    3.54       8.8  T
   6    -83.3912794 -0.145663E-07  0.868E-04    3.54      14.9  T
   7    -83.3912794 -0.249519E-07  0.228E-04    3.54      56.7  T
     SCC iter.                  ...        0 min,  0.047 sec
     gradient                   ...        0 min,  0.010 sec
 * total energy  :   -82.3151640 Eh     change       -0.1291963E-02 Eh
   gradient norm :     0.0334066 Eh/α   predicted    -0.1216422E-02 (  -5.85%)
   displ. norm   :     0.4217578 α      lambda       -0.1274419E-02
   maximum displ.:     0.3124234 α      in ANC's #8, #3, #4, ...

........................................................................
.............................. CYCLE    8 ..............................
........................................................................
   1    -83.3961943 -0.833962E+02  0.811E-02    3.53       0.0  T
   2    -83.3961959 -0.159971E-05  0.483E-02    3.53       1.0  T
   3    -83.3961871  0.878831E-05  0.125E-02    3.53       1.0  T
   4    -83.3961966 -0.957694E-05  0.230E-03    3.53       5.6  T
   5    -83.3961969 -0.211439E-06  0.114E-03    3.53      11.3  T
   6    -83.3961969 -0.181901E-07  0.638E-04    3.53      20.2  T
   7    -83.3961969 -0.955770E-08  0.242E-04    3.53      53.3  T
     SCC iter.                  ...        0 min,  0.048 sec
     gradient                   ...        0 min,  0.010 sec
 * total energy  :   -82.3160034 Eh     change       -0.8393724E-03 Eh
   gradient norm :     0.0246078 Eh/α   predicted    -0.7505617E-03 ( -10.58%)
   displ. norm   :     0.3653102 α      lambda       -0.7570165E-03
   maximum displ.:     0.2512712 α      in ANC's #8, #3, #4, ...

........................................................................
.............................. CYCLE    9 ..............................
........................................................................
   1    -83.4001878 -0.834002E+02  0.640E-02    3.54       0.0  T
   2    -83.4001893 -0.146361E-05  0.379E-02    3.54       1.0  T
   3    -83.4001886  0.696991E-06  0.442E-03    3.54       2.9  T
   4    -83.4001894 -0.881586E-06  0.173E-03    3.54       7.5  T
   5    -83.4001896 -0.107793E-06  0.775E-04    3.54      16.7  T
   6    -83.4001896 -0.542410E-08  0.345E-04    3.54      37.4  T
     SCC iter.                  ...        0 min,  0.040 sec
     gradient                   ...        0 min,  0.010 sec
 * total energy  :   -82.3165867 Eh     change       -0.5833442E-03 Eh
   gradient norm :     0.0109489 Eh/α   predicted    -0.4290214E-03 ( -26.45%)
   displ. norm   :     0.4829431 α      lambda       -0.7525402E-03
   maximum displ.:     0.2918664 α      in ANC's #8, #3, #4, ...

........................................................................
.............................. CYCLE   10 ..............................
........................................................................
   1    -83.4004997 -0.834005E+02  0.785E-02    3.54       0.0  T
   2    -83.4005016 -0.194393E-05  0.467E-02    3.54       1.0  T
   3    -83.4005000  0.166662E-05  0.611E-03    3.54       2.1  T
   4    -83.4005018 -0.183201E-05  0.273E-03    3.54       4.7  T
   5    -83.4005021 -0.306976E-06  0.107E-03    3.54      12.1  T
   6    -83.4005021 -0.996666E-08  0.632E-04    3.54      20.4  T
   7    -83.4005021 -0.852415E-08  0.262E-04    3.54      49.2  T
     SCC iter.                  ...        0 min,  0.047 sec
     gradient                   ...        0 min,  0.010 sec
 * total energy  :   -82.3171852 Eh     change       -0.5984844E-03 Eh
   gradient norm :     0.0102694 Eh/α   predicted    -0.4640342E-03 ( -22.47%)
   displ. norm   :     0.5484883 α      lambda       -0.7597415E-03
   maximum displ.:     0.2918787 α      in ANC's #3, #8, #4, ...

........................................................................
.............................. CYCLE   11 ..............................
........................................................................
   1    -83.3999494 -0.833999E+02  0.912E-02    3.55       0.0  T
   2    -83.3999513 -0.193138E-05  0.544E-02    3.55       1.0  T
   3    -83.3999454  0.592626E-05  0.113E-02    3.55       1.1  T
   4    -83.3999520 -0.666206E-05  0.258E-03    3.55       5.0  T
   5    -83.3999522 -0.168607E-06  0.116E-03    3.55      11.1  T
   6    -83.3999522 -0.531814E-08  0.753E-04    3.55      17.1  T
   7    -83.3999522 -0.192970E-07  0.262E-04    3.55      49.3  T
     SCC iter.                  ...        0 min,  0.047 sec
     gradient                   ...        0 min,  0.010 sec
 * total energy  :   -82.3177438 Eh     change       -0.5586023E-03 Eh
   gradient norm :     0.0221398 Eh/α   predicted    -0.4941718E-03 ( -11.53%)
   displ. norm   :     0.5276229 α      lambda       -0.6133794E-03
   maximum displ.:     0.2875299 α      in ANC's #3, #4, #8, ...

........................................................................
.............................. CYCLE   12 ..............................
........................................................................
   1    -83.3978715 -0.833979E+02  0.789E-02    3.56       0.0  T
   2    -83.3978731 -0.161121E-05  0.471E-02    3.56       1.0  T
   3    -83.3978669  0.614745E-05  0.111E-02    3.55       1.2  T
   4    -83.3978738 -0.685448E-05  0.222E-03    3.55       5.8  T
   5    -83.3978739 -0.116478E-06  0.113E-03    3.55      11.5  T
   6    -83.3978739 -0.142207E-07  0.680E-04    3.55      19.0  T
   7    -83.3978739 -0.155400E-07  0.226E-04    3.55      57.0  T
     SCC iter.                  ...        0 min,  0.047 sec
     gradient                   ...        0 min,  0.010 sec
 * total energy  :   -82.3181583 Eh     change       -0.4145274E-03 Eh
   gradient norm :     0.0263733 Eh/α   predicted    -0.3920721E-03 (  -5.42%)
   displ. norm   :     0.3819882 α      lambda       -0.4869766E-03
   maximum displ.:     0.2340261 α      in ANC's #3, #4, #8, ...

........................................................................
.............................. CYCLE   13 ..............................
........................................................................
   1    -83.3985530 -0.833986E+02  0.627E-02    3.56       0.0  T
   2    -83.3985543 -0.127552E-05  0.374E-02    3.56       1.0  T
   3    -83.3985531  0.120540E-05  0.539E-03    3.56       2.4  T
   4    -83.3985545 -0.141759E-05  0.171E-03    3.56       7.6  T
   5    -83.3985546 -0.107848E-06  0.705E-04    3.56      18.3  T
   6    -83.3985546 -0.479538E-08  0.298E-04    3.56      43.3  T
     SCC iter.                  ...        0 min,  0.051 sec
     gradient                   ...        0 min,  0.010 sec
 * total energy  :   -82.3185279 Eh     change       -0.3695935E-03 Eh
   gradient norm :     0.0123333 Eh/α   predicted    -0.2790193E-03 ( -24.51%)
   displ. norm   :     0.4279600 α      lambda       -0.4442447E-03
   maximum displ.:     0.2715748 α      in ANC's #3, #4, #8, ...

........................................................................
.............................. CYCLE   14 ..............................
........................................................................
   1    -83.3985174 -0.833985E+02  0.603E-02    3.56       0.0  T
   2    -83.3985183 -0.887392E-06  0.359E-02    3.56       1.0  T
   3    -83.3985167  0.153624E-05  0.554E-03    3.56       2.3  T
   4    -83.3985185 -0.182058E-05  0.144E-03    3.56       9.0  T
   5    -83.3985186 -0.618962E-07  0.684E-04    3.56      18.9  T
   6    -83.3985186 -0.270703E-09  0.346E-04    3.56      37.3  T
     SCC iter.                  ...        0 min,  0.041 sec
     gradient                   ...        0 min,  0.010 sec
 * total energy  :   -82.3188829 Eh     change       -0.3550042E-03 Eh
   gradient norm :     0.0065993 Eh/α   predicted    -0.2628070E-03 ( -25.97%)
   displ. norm   :     0.4621331 α      lambda       -0.4456994E-03
   maximum displ.:     0.3002887 α      in ANC's #3, #4, #6, ...

........................................................................
.............................. CYCLE   15 ..............................
........................................................................
   1    -83.4014205 -0.834014E+02  0.626E-02    3.56       0.0  T
   2    -83.4014214 -0.892877E-06  0.373E-02    3.56       1.0  T
   3    -83.4014173  0.408810E-05  0.893E-03    3.56       1.4  T
   4    -83.4014219 -0.455862E-05  0.151E-03    3.56       8.5  T
   5    -83.4014220 -0.719373E-07  0.763E-04    3.56      16.9  T
   6    -83.4014220 -0.376336E-08  0.500E-04    3.56      25.8  T
     SCC iter.                  ...        0 min,  0.042 sec
     gradient                   ...        0 min,  0.010 sec
 * total energy  :   -82.3192388 Eh     change       -0.3559136E-03 Eh
   gradient norm :     0.0083575 Eh/α   predicted    -0.2704436E-03 ( -24.01%)
   displ. norm   :     0.5268055 α      lambda       -0.4380343E-03
   maximum displ.:     0.3517529 α      in ANC's #3, #4, #13, ...

........................................................................
.............................. CYCLE   16 ..............................
........................................................................
   1    -83.3991282 -0.833991E+02  0.687E-02    3.56       0.0  T
   2    -83.3991295 -0.129581E-05  0.411E-02    3.56       1.0  T
   3    -83.3991194  0.100309E-04  0.136E-02    3.56       1.0  T
   4    -83.3991304 -0.109806E-04  0.211E-03    3.56       6.1  T
   5    -83.3991306 -0.151278E-06  0.108E-03    3.56      12.0  T
   6    -83.3991306 -0.214560E-07  0.647E-04    3.56      19.9  T
   7    -83.3991306 -0.848361E-08  0.222E-04    3.56      58.1  T
     SCC iter.                  ...        0 min,  0.047 sec
     gradient                   ...        0 min,  0.010 sec
 * total energy  :   -82.3195694 Eh     change       -0.3306095E-03 Eh
   gradient norm :     0.0109403 Eh/α   predicted    -0.2798007E-03 ( -15.37%)
   displ. norm   :     0.4962522 α      lambda       -0.3890398E-03
   maximum displ.:     0.3424579 α      in ANC's #3, #4, #13, ...

........................................................................
.............................. CYCLE   17 ..............................
........................................................................
   1    -83.4023636 -0.834024E+02  0.633E-02    3.55       0.0  T
   2    -83.4023648 -0.115018E-05  0.376E-02    3.55       1.0  T
   3    -83.4023587  0.612342E-05  0.106E-02    3.55       1.2  T
   4    -83.4023653 -0.660550E-05  0.202E-03    3.55       6.4  T
   5    -83.4023654 -0.158781E-06  0.863E-04    3.55      15.0  T
   6    -83.4023654 -0.951275E-08  0.557E-04    3.55      23.2  T
     SCC iter.                  ...        0 min,  0.040 sec
     gradient                   ...        0 min,  0.010 sec
 * total energy  :   -82.3198449 Eh     change       -0.2755029E-03 Eh
   gradient norm :     0.0102373 Eh/α   predicted    -0.2424296E-03 ( -12.00%)
   displ. norm   :     0.4988892 α      lambda       -0.2948987E-03
   maximum displ.:     0.3607239 α      in ANC's #3, #4, #5, ...

........................................................................
.............................. CYCLE   18 ..............................
........................................................................
   1    -83.4012423 -0.834012E+02  0.615E-02    3.55       0.0  T
   2    -83.4012439 -0.155958E-05  0.365E-02    3.55       1.0  T
   3    -83.4012422  0.165542E-05  0.609E-03    3.55       2.1  T
   4    -83.4012440 -0.173367E-05  0.254E-03    3.55       5.1  T
   5    -83.4012443 -0.311765E-06  0.897E-04    3.55      14.4  T
   6    -83.4012443 -0.653633E-08  0.565E-04    3.55      22.9  T
     SCC iter.                  ...        0 min,  0.040 sec
     gradient                   ...        0 min,  0.010 sec
 * total energy  :   -82.3200659 Eh     change       -0.2209627E-03 Eh
   gradient norm :     0.0148210 Eh/α   predicted    -0.1841507E-03 ( -16.66%)
   displ. norm   :     0.4165765 α      lambda       -0.3297353E-03
   maximum displ.:     0.3202571 α      in ANC's #3, #4, #5, ...

........................................................................
.............................. CYCLE   19 ..............................
........................................................................
   1    -83.4031753 -0.834032E+02  0.561E-02    3.55       0.0  T
   2    -83.4031766 -0.132495E-05  0.334E-02    3.55       1.0  T
   3    -83.4031708  0.579197E-05  0.101E-02    3.55       1.3  T
   4    -83.4031770 -0.615056E-05  0.234E-03    3.55       5.5  T
   5    -83.4031773 -0.262603E-06  0.863E-04    3.55      15.0  T
   6    -83.4031773 -0.125551E-07  0.506E-04    3.55      25.5  T
     SCC iter.                  ...        0 min,  0.040 sec
     gradient                   ...        0 min,  0.010 sec
 * total energy  :   -82.3202559 Eh     change       -0.1899908E-03 Eh
   gradient norm :     0.0227367 Eh/α   predicted    -0.1934834E-03 (   1.84%)
   displ. norm   :     0.5222569 α      lambda       -0.3920047E-03
   maximum displ.:     0.4009772 α      in ANC's #3, #4, #5, ...

........................................................................
.............................. CYCLE   20 ..............................
........................................................................
   1    -83.4016437 -0.834016E+02  0.640E-02    3.55       0.0  T
   2    -83.4016455 -0.180665E-05  0.383E-02    3.55       1.0  T
   3    -83.4016383  0.718488E-05  0.114E-02    3.55       1.1  T
   4    -83.4016460 -0.765106E-05  0.274E-03    3.55       4.7  T
   5    -83.4016463 -0.342373E-06  0.108E-03    3.55      12.0  T
   6    -83.4016464 -0.169420E-07  0.652E-04    3.55      19.8  T
   7    -83.4016464 -0.654114E-08  0.260E-04    3.55      49.6  T
     SCC iter.                  ...        0 min,  0.047 sec
     gradient                   ...        0 min,  0.010 sec
 * total energy  :   -82.3204790 Eh     change       -0.2231228E-03 Eh
   gradient norm :     0.0194489 Eh/α   predicted    -0.2494711E-03 (  11.81%)
   displ. norm   :     0.2856747 α      lambda       -0.2327720E-03
   maximum displ.:     0.2289374 α      in ANC's #3, #4, #9, ...
 * RMSD in coord.:     0.8691908 α      energy gain  -0.9913392E-01 Eh

generating ANC from model Hessian ...
Using Lindh-Hessian (1995)
 Shifting diagonal of input Hessian by    9.9127794402626476E-003
 Lowest  eigenvalues of input Hessian
    0.000000    0.000000    0.000000    0.000000    0.000000    0.000000
    0.010000    0.010047    0.010115    0.010583    0.011192    0.011729
    0.012063    0.013095    0.013235    0.014141    0.014989    0.015059
 Highest eigenvalues
    1.726661    1.890437    1.892907    1.942858    8.748720    9.410108


........................................................................
.............................. CYCLE   21 ..............................
........................................................................
   1    -83.4020155 -0.834020E+02  0.362E-02    3.55       0.0  T
   2    -83.4020162 -0.723656E-06  0.215E-02    3.55       1.0  T
   3    -83.4020159  0.300009E-06  0.310E-03    3.55       4.2  T
   4    -83.4020163 -0.374452E-06  0.126E-03    3.55      10.2  T
   5    -83.4020163 -0.612420E-07  0.507E-04    3.55      25.5  T
   6    -83.4020163 -0.106671E-08  0.267E-04    3.55      48.4  T
     SCC iter.                  ...        0 min,  0.041 sec
     gradient                   ...        0 min,  0.010 sec
 * total energy  :   -82.3206364 Eh     change       -0.1573815E-03 Eh
   gradient norm :     0.0112847 Eh/α   predicted     0.0000000E+00 (-100.00%)
   displ. norm   :     0.0633681 α      lambda        0.1393110E-03
   maximum displ.:     0.0332679 α      in ANC's #3, #9, #10, ...

........................................................................
.............................. CYCLE   22 ..............................
........................................................................
   1    -83.4028198 -0.834028E+02  0.157E-02    3.55       0.0  T
   2    -83.4028202 -0.440823E-06  0.946E-03    3.55       1.4  T
   3    -83.4028191  0.111571E-05  0.497E-03    3.55       2.6  T
   4    -83.4028203 -0.120696E-05  0.132E-03    3.55       9.8  T
   5    -83.4028204 -0.923590E-07  0.371E-04    3.55      34.8  T
   6    -83.4028204 -0.315070E-08  0.217E-04    3.55      59.6  T
     SCC iter.                  ...        0 min,  0.040 sec
     gradient                   ...        0 min,  0.010 sec
 * total energy  :   -82.3207341 Eh     change       -0.9767344E-04 Eh
   gradient norm :     0.0069337 Eh/α   predicted    -0.7051807E-04 ( -27.80%)
   displ. norm   :     0.1303948 α      lambda       -0.1322932E-03
   maximum displ.:     0.0715183 α      in ANC's #3, #9, #10, ...

........................................................................
.............................. CYCLE   23 ..............................
........................................................................
   1    -83.4034816 -0.834035E+02  0.272E-02    3.55       0.0  T
   2    -83.4034825 -0.834180E-06  0.162E-02    3.55       1.0  T
   3    -83.4034807  0.180118E-05  0.655E-03    3.55       2.0  T
   4    -83.4034826 -0.194722E-05  0.162E-03    3.55       8.0  T
   5    -83.4034827 -0.131200E-06  0.507E-04    3.55      25.5  T
   6    -83.4034827 -0.663914E-08  0.299E-04    3.55      43.2  T
     SCC iter.                  ...        0 min,  0.042 sec
     gradient                   ...        0 min,  0.010 sec
 * total energy  :   -82.3208199 Eh     change       -0.8581894E-04 Eh
   gradient norm :     0.0036300 Eh/α   predicted    -0.6738628E-04 ( -21.48%)
   displ. norm   :     0.1377651 α      lambda       -0.7917437E-04
   maximum displ.:     0.0811577 α      in ANC's #3, #9, #10, ...

........................................................................
.............................. CYCLE   24 ..............................
........................................................................
   1    -83.4033301 -0.834033E+02  0.273E-02    3.55       0.0  T
   2    -83.4033304 -0.242408E-06  0.164E-02    3.55       1.0  T
   3    -83.4033280  0.235977E-05  0.646E-03    3.55       2.0  T
   4    -83.4033305 -0.251964E-05  0.988E-04    3.55      13.1  T
   5    -83.4033306 -0.451407E-07  0.396E-04    3.55      32.6  T
   6    -83.4033306 -0.299788E-08  0.227E-04    3.55      56.8  T
     SCC iter.                  ...        0 min,  0.041 sec
     gradient                   ...        0 min,  0.010 sec
 * total energy  :   -82.3208819 Eh     change       -0.6198067E-04 Eh
   gradient norm :     0.0041610 Eh/α   predicted    -0.4036114E-04 ( -34.88%)
   displ. norm   :     0.1830995 α      lambda       -0.8969995E-04
   maximum displ.:     0.1134961 α      in ANC's #3, #9, #10, ...

........................................................................
.............................. CYCLE   25 ..............................
........................................................................
   1    -83.4029402 -0.834029E+02  0.334E-02    3.55       0.0  T
   2    -83.4029404 -0.209676E-06  0.200E-02    3.55       1.0  T
   3    -83.4029366  0.378644E-05  0.811E-03    3.55       1.6  T
   4    -83.4029407 -0.407639E-05  0.946E-04    3.55      13.6  T
   5    -83.4029407 -0.279394E-07  0.498E-04    3.55      25.9  T
   6    -83.4029407 -0.469861E-08  0.271E-04    3.55      47.7  T
     SCC iter.                  ...        0 min,  0.040 sec
     gradient                   ...        0 min,  0.010 sec
 * total energy  :   -82.3209512 Eh     change       -0.6927185E-04 Eh
   gradient norm :     0.0032007 Eh/α   predicted    -0.4635383E-04 ( -33.08%)
   displ. norm   :     0.1737035 α      lambda       -0.7028421E-04
   maximum displ.:     0.1165964 α      in ANC's #3, #9, #5, ...

........................................................................
.............................. CYCLE   26 ..............................
........................................................................
   1    -83.4028489 -0.834028E+02  0.286E-02    3.55       0.0  T
   2    -83.4028491 -0.136730E-06  0.171E-02    3.55       1.0  T
   3    -83.4028465  0.258476E-05  0.675E-03    3.55       1.9  T
   4    -83.4028493 -0.279509E-05  0.824E-04    3.55      15.7  T
   5    -83.4028493 -0.228644E-07  0.434E-04    3.55      29.7  T
   6    -83.4028493 -0.286998E-08  0.234E-04    3.55      55.1  T
     SCC iter.                  ...        0 min,  0.041 sec
     gradient                   ...        0 min,  0.010 sec
 * total energy  :   -82.3210065 Eh     change       -0.5534675E-04 Eh
   gradient norm :     0.0027378 Eh/α   predicted    -0.3622713E-04 ( -34.55%)
   displ. norm   :     0.1514182 α      lambda       -0.5656343E-04
   maximum displ.:     0.1078537 α      in ANC's #3, #9, #5, ...

........................................................................
.............................. CYCLE   27 ..............................
........................................................................
   1    -83.4030902 -0.834031E+02  0.230E-02    3.55       0.0  T
   2    -83.4030903 -0.120028E-06  0.137E-02    3.55       1.0  T
   3    -83.4030890  0.127854E-05  0.485E-03    3.55       2.7  T
   4    -83.4030904 -0.138823E-05  0.706E-04    3.55      18.3  T
   5    -83.4030904 -0.196486E-07  0.355E-04    3.55      36.3  T
   6    -83.4030904 -0.243332E-08  0.194E-04    3.55      66.7  T
     SCC iter.                  ...        0 min,  0.040 sec
     gradient                   ...        0 min,  0.010 sec
 * total energy  :   -82.3210540 Eh     change       -0.4745791E-04 Eh
   gradient norm :     0.0020665 Eh/α   predicted    -0.2893073E-04 ( -39.04%)
   displ. norm   :     0.1496022 α      lambda       -0.5751078E-04
   maximum displ.:     0.1092534 α      in ANC's #3, #9, #5, ...

........................................................................
.............................. CYCLE   28 ..............................
........................................................................
   1    -83.4035914 -0.834036E+02  0.227E-02    3.55       0.0  T
   2    -83.4035915 -0.162787E-06  0.135E-02    3.55       1.0  T
   3    -83.4035910  0.500440E-06  0.331E-03    3.55       3.9  T
   4    -83.4035916 -0.561897E-06  0.612E-04    3.55      21.1  T
   5    -83.4035916 -0.121924E-07  0.296E-04    3.55      43.6  T
     SCC iter.                  ...        0 min,  0.034 sec
     gradient                   ...        0 min,  0.010 sec
 * total energy  :   -82.3211023 Eh     change       -0.4837202E-04 Eh
   gradient norm :     0.0032204 Eh/α   predicted    -0.2941912E-04 ( -39.18%)
   displ. norm   :     0.1561031 α      lambda       -0.5577365E-04
   maximum displ.:     0.1155163 α      in ANC's #3, #9, #5, ...

........................................................................
.............................. CYCLE   29 ..............................
........................................................................
   1    -83.4039049 -0.834039E+02  0.236E-02    3.55       0.0  T
   2    -83.4039051 -0.164043E-06  0.140E-02    3.55       1.0  T
   3    -83.4039046  0.513524E-06  0.339E-03    3.55       3.8  T
   4    -83.4039052 -0.580587E-06  0.559E-04    3.55      23.1  T
   5    -83.4039052 -0.922414E-08  0.240E-04    3.55      53.7  T
     SCC iter.                  ...        0 min,  0.034 sec
     gradient                   ...        0 min,  0.010 sec
 * total energy  :   -82.3211485 Eh     change       -0.4612780E-04 Eh
   gradient norm :     0.0028056 Eh/α   predicted    -0.2856802E-04 ( -38.07%)
   displ. norm   :     0.1361297 α      lambda       -0.4301966E-04
   maximum displ.:     0.1034705 α      in ANC's #3, #9, #10, ...

........................................................................
.............................. CYCLE   30 ..............................
........................................................................
   1    -83.4040722 -0.834041E+02  0.203E-02    3.55       0.0  T
   2    -83.4040723 -0.106079E-06  0.121E-02    3.55       1.1  T
   3    -83.4040717  0.554966E-06  0.339E-03    3.55       3.8  T
   4    -83.4040723 -0.620121E-06  0.460E-04    3.55      28.1  T
   5    -83.4040723 -0.489753E-08  0.238E-04    3.55      54.1  T
     SCC iter.                  ...        0 min,  0.034 sec
     gradient                   ...        0 min,  0.010 sec
 * total energy  :   -82.3211851 Eh     change       -0.3664279E-04 Eh
   gradient norm :     0.0018696 Eh/α   predicted    -0.2191108E-04 ( -40.20%)
   displ. norm   :     0.1564156 α      lambda       -0.3217923E-04
   maximum displ.:     0.1244607 α      in ANC's #3, #9, #10, ...

........................................................................
.............................. CYCLE   31 ..............................
........................................................................
   1    -83.4041005 -0.834041E+02  0.222E-02    3.54       0.0  T
   2    -83.4041006 -0.116321E-06  0.132E-02    3.54       1.0  T
   3    -83.4040998  0.782877E-06  0.399E-03    3.54       3.2  T
   4    -83.4041007 -0.874644E-06  0.490E-04    3.54      26.3  T
   5    -83.4041007 -0.553773E-08  0.248E-04    3.54      52.1  T
     SCC iter.                  ...        0 min,  0.034 sec
     gradient                   ...        0 min,  0.010 sec
 * total energy  :   -82.3212255 Eh     change       -0.4038202E-04 Eh
   gradient norm :     0.0014902 Eh/α   predicted    -0.1626607E-04 ( -59.72%)
   displ. norm   :     0.1042785 α      lambda       -0.2252325E-04
   maximum displ.:     0.0886742 α      in ANC's #3, #1, #10, ...

........................................................................
.............................. CYCLE   32 ..............................
........................................................................
   1    -83.4040198 -0.834040E+02  0.133E-02    3.54       0.0  T
   2    -83.4040199 -0.496196E-07  0.791E-03    3.54       1.6  T
   3    -83.4040197  0.227380E-06  0.216E-03    3.54       6.0  T
   4    -83.4040199 -0.254582E-06  0.318E-04    3.54      40.6  T
   5    -83.4040199 -0.275806E-08  0.141E-04    3.54      91.4  T
     SCC iter.                  ...        0 min,  0.034 sec
     gradient                   ...        0 min,  0.010 sec
 * total energy  :   -82.3212561 Eh     change       -0.3057671E-04 Eh
   gradient norm :     0.0013578 Eh/α   predicted    -0.1131738E-04 ( -62.99%)
   displ. norm   :     0.0953679 α      lambda       -0.2257956E-04
   maximum displ.:     0.0795408 α      in ANC's #3, #1, #7, ...

........................................................................
.............................. CYCLE   33 ..............................
........................................................................
   1    -83.4039086 -0.834039E+02  0.113E-02    3.54       0.0  T
   2    -83.4039087 -0.438618E-07  0.671E-03    3.54       1.9  T
   3    -83.4039086  0.212044E-07  0.741E-04    3.54      17.4  T
   4    -83.4039087 -0.245765E-07  0.333E-04    3.54      38.8  T
     SCC iter.                  ...        0 min,  0.027 sec
     gradient                   ...        0 min,  0.010 sec
 * total energy  :   -82.3212869 Eh     change       -0.3083801E-04 Eh
   gradient norm :     0.0014502 Eh/α   predicted    -0.1133685E-04 ( -63.24%)
   displ. norm   :     0.1137074 α      lambda       -0.2558559E-04
   maximum displ.:     0.0898573 α      in ANC's #3, #1, #9, ...

........................................................................
.............................. CYCLE   34 ..............................
........................................................................
   1    -83.4037141 -0.834037E+02  0.124E-02    3.54       0.0  T
   2    -83.4037141 -0.402237E-07  0.736E-03    3.54       1.8  T
   3    -83.4037141  0.354440E-07  0.903E-04    3.54      14.3  T
   4    -83.4037141 -0.369884E-07  0.414E-04    3.54      31.2  T
     SCC iter.                  ...        0 min,  0.028 sec
     gradient                   ...        0 min,  0.010 sec
 * total energy  :   -82.3213217 Eh     change       -0.3485046E-04 Eh
   gradient norm :     0.0016447 Eh/α   predicted    -0.1286899E-04 ( -63.07%)
   displ. norm   :     0.1337449 α      lambda       -0.2758498E-04
   maximum displ.:     0.1027284 α      in ANC's #3, #1, #9, ...

........................................................................
.............................. CYCLE   35 ..............................
........................................................................
   1    -83.4035709 -0.834036E+02  0.139E-02    3.54       0.0  T
   2    -83.4035709 -0.323751E-07  0.829E-03    3.54       1.6  T
   3    -83.4035709  0.138679E-07  0.737E-04    3.54      17.5  T
   4    -83.4035709 -0.221683E-07  0.333E-04    3.54      38.8  T
     SCC iter.                  ...        0 min,  0.027 sec
     gradient                   ...        0 min,  0.010 sec
 * total energy  :   -82.3213596 Eh     change       -0.3780590E-04 Eh
   gradient norm :     0.0015253 Eh/α   predicted    -0.1390448E-04 ( -63.22%)
   displ. norm   :     0.1503806 α      lambda       -0.2868926E-04
   maximum displ.:     0.1147033 α      in ANC's #3, #1, #9, ...

........................................................................
.............................. CYCLE   36 ..............................
........................................................................
   1    -83.4035575 -0.834036E+02  0.145E-02    3.54       0.0  T
   2    -83.4035575 -0.352374E-07  0.864E-03    3.54       1.5  T
   3    -83.4035575  0.319408E-07  0.944E-04    3.54      13.7  T
   4    -83.4035575 -0.427539E-07  0.361E-04    3.54      35.8  T
     SCC iter.                  ...        0 min,  0.028 sec
     gradient                   ...        0 min,  0.010 sec
 * total energy  :   -82.3213989 Eh     change       -0.3936095E-04 Eh
   gradient norm :     0.0012923 Eh/α   predicted    -0.1448974E-04 ( -63.19%)
   displ. norm   :     0.1557586 α      lambda       -0.2787035E-04
   maximum displ.:     0.1198224 α      in ANC's #3, #1, #9, ...

........................................................................
.............................. CYCLE   37 ..............................
........................................................................
   1    -83.4036334 -0.834036E+02  0.149E-02    3.54       0.0  T
   2    -83.4036335 -0.403819E-07  0.888E-03    3.54       1.5  T
   3    -83.4036335  0.143114E-07  0.741E-04    3.54      17.4  T
   4    -83.4036335 -0.215781E-07  0.405E-04    3.54      31.9  T
     SCC iter.                  ...        0 min,  0.028 sec
     gradient                   ...        0 min,  0.010 sec
 * total energy  :   -82.3214371 Eh     change       -0.3822010E-04 Eh
   gradient norm :     0.0016470 Eh/α   predicted    -0.1408629E-04 ( -63.14%)
   displ. norm   :     0.1540195 α      lambda       -0.2627721E-04
   maximum displ.:     0.1202007 α      in ANC's #3, #1, #9, ...

........................................................................
.............................. CYCLE   38 ..............................
........................................................................
   1    -83.4037774 -0.834038E+02  0.137E-02    3.54       0.0  T
   2    -83.4037774 -0.311226E-07  0.818E-03    3.54       1.6  T
   3    -83.4037773  0.130835E-06  0.162E-03    3.54       8.0  T
   4    -83.4037774 -0.146002E-06  0.370E-04    3.54      34.9  T
   5    -83.4037774 -0.323061E-08  0.213E-04    3.54      60.6  T
     SCC iter.                  ...        0 min,  0.034 sec
     gradient                   ...        0 min,  0.010 sec
 * total energy  :   -82.3214736 Eh     change       -0.3647313E-04 Eh
   gradient norm :     0.0012595 Eh/α   predicted    -0.1327791E-04 ( -63.60%)
   displ. norm   :     0.1489902 α      lambda       -0.2465737E-04
   maximum displ.:     0.1169095 α      in ANC's #3, #1, #2, ...

........................................................................
.............................. CYCLE   39 ..............................
........................................................................
   1    -83.4040045 -0.834040E+02  0.132E-02    3.54       0.0  T
   2    -83.4040045 -0.266090E-07  0.790E-03    3.54       1.6  T
   3    -83.4040044  0.132256E-06  0.165E-03    3.54       7.8  T
   4    -83.4040045 -0.148203E-06  0.327E-04    3.54      39.5  T
   5    -83.4040045 -0.166324E-08  0.202E-04    3.54      63.8  T
     SCC iter.                  ...        0 min,  0.034 sec
     gradient                   ...        0 min,  0.010 sec
 * total energy  :   -82.3215086 Eh     change       -0.3500781E-04 Eh
   gradient norm :     0.0006510 Eh/α   predicted    -0.1245488E-04 ( -64.42%)
   displ. norm   :     0.1550748 α      lambda       -0.2545247E-04
   maximum displ.:     0.1213102 α      in ANC's #3, #1, #2, ...

........................................................................
.............................. CYCLE   40 ..............................
........................................................................
   1    -83.4041467 -0.834041E+02  0.140E-02    3.54       0.0  T
   2    -83.4041467 -0.266317E-07  0.840E-03    3.54       1.5  T
   3    -83.4041465  0.226547E-06  0.215E-03    3.54       6.0  T
   4    -83.4041467 -0.251146E-06  0.328E-04    3.54      39.3  T
   5    -83.4041467 -0.125992E-08  0.217E-04    3.54      59.6  T
     SCC iter.                  ...        0 min,  0.034 sec
     gradient                   ...        0 min,  0.010 sec
 * total energy  :   -82.3215452 Eh     change       -0.3658566E-04 Eh
   gradient norm :     0.0008209 Eh/α   predicted    -0.1286317E-04 ( -64.84%)
   displ. norm   :     0.1671459 α      lambda       -0.2721868E-04
   maximum displ.:     0.1296702 α      in ANC's #3, #1, #2, ...

........................................................................
.............................. CYCLE   41 ..............................
........................................................................
   1    -83.4042944 -0.834043E+02  0.158E-02    3.54       0.0  T
   2    -83.4042944 -0.340713E-07  0.944E-03    3.54       1.4  T
   3    -83.4042941  0.292085E-06  0.245E-03    3.54       5.3  T
   4    -83.4042944 -0.324472E-06  0.349E-04    3.54      37.0  T
   5    -83.4042944 -0.114859E-08  0.231E-04    3.54      55.9  T
     SCC iter.                  ...        0 min,  0.034 sec
     gradient                   ...        0 min,  0.010 sec
 * total energy  :   -82.3215842 Eh     change       -0.3905186E-04 Eh
   gradient norm :     0.0008512 Eh/α   predicted    -0.1377896E-04 ( -64.72%)
   displ. norm   :     0.1829548 α      lambda       -0.2883345E-04
   maximum displ.:     0.1412300 α      in ANC's #3, #1, #2, ...

........................................................................
.............................. CYCLE   42 ..............................
........................................................................
   1    -83.4043426 -0.834043E+02  0.181E-02    3.54       0.0  T
   2    -83.4043427 -0.473041E-07  0.108E-02    3.54       1.2  T
   3    -83.4043423  0.383932E-06  0.282E-03    3.54       4.6  T
   4    -83.4043427 -0.427361E-06  0.394E-04    3.54      32.7  T
   5    -83.4043427 -0.144445E-08  0.263E-04    3.54      49.1  T
     SCC iter.                  ...        0 min,  0.034 sec
     gradient                   ...        0 min,  0.010 sec
 * total energy  :   -82.3216253 Eh     change       -0.4108130E-04 Eh
   gradient norm :     0.0007885 Eh/α   predicted    -0.1463307E-04 ( -64.38%)
   displ. norm   :     0.1907390 α      lambda       -0.2853360E-04
   maximum displ.:     0.1474891 α      in ANC's #3, #1, #2, ...
 * RMSD in coord.:     0.3531676 α      energy gain  -0.1146308E-02 Eh

generating ANC from model Hessian ...
Using Lindh-Hessian (1995)
 Shifting diagonal of input Hessian by    9.9158658298907961E-003
 Lowest  eigenvalues of input Hessian
    0.000000    0.000000    0.000000    0.000000    0.000000    0.000000
    0.010000    0.010050    0.010110    0.010540    0.011279    0.011717
    0.012053    0.013159    0.013277    0.013991    0.015043    0.015078
 Highest eigenvalues
    1.721601    1.892021    1.894785    1.944219    8.764611    9.414132


........................................................................
.............................. CYCLE   43 ..............................
........................................................................
   1    -83.4043813 -0.834044E+02  0.193E-02    3.54       0.0  T
   2    -83.4043813 -0.545536E-07  0.115E-02    3.54       1.1  T
   3    -83.4043809  0.409586E-06  0.291E-03    3.54       4.4  T
   4    -83.4043814 -0.456811E-06  0.408E-04    3.54      31.6  T
   5    -83.4043814 -0.156399E-08  0.260E-04    3.54      49.7  T
     SCC iter.                  ...        0 min,  0.034 sec
     gradient                   ...        0 min,  0.010 sec
 * total energy  :   -82.3216657 Eh     change       -0.4033425E-04 Eh
   gradient norm :     0.0006895 Eh/α   predicted     0.0000000E+00 (-100.00%)
   displ. norm   :     0.0410565 α      lambda       -0.3013659E-05
   maximum displ.:     0.0387325 α      in ANC's #3, #7, #9, ...

........................................................................
.............................. CYCLE   44 ..............................
........................................................................
   1    -83.4044750 -0.834045E+02  0.498E-03    3.53       0.0  T
   2    -83.4044750 -0.706510E-08  0.298E-03    3.53       4.3  T
   3    -83.4044750  0.178810E-07  0.627E-04    3.53      20.6  T
   4    -83.4044750 -0.206657E-07  0.137E-04    3.53      94.2  T
     SCC iter.                  ...        0 min,  0.027 sec
     gradient                   ...        0 min,  0.010 sec
 * total energy  :   -82.3216776 Eh     change       -0.1196335E-04 Eh
   gradient norm :     0.0007944 Eh/α   predicted    -0.4264082E-05 ( -64.36%)
   displ. norm   :     0.0574937 α      lambda       -0.1099453E-04
   maximum displ.:     0.0507521 α      in ANC's #3, #9, #7, ...

........................................................................
.............................. CYCLE   45 ..............................
........................................................................
   1    -83.4044521 -0.834045E+02  0.683E-03    3.53       0.0  T
   2    -83.4044521 -0.100849E-07  0.407E-03    3.53       3.2  T
   3    -83.4044521  0.255469E-07  0.758E-04    3.53      17.0  T
   4    -83.4044521 -0.298475E-07  0.168E-04    3.53      77.0  T
     SCC iter.                  ...        0 min,  0.027 sec
     gradient                   ...        0 min,  0.010 sec
 * total energy  :   -82.3216929 Eh     change       -0.1527392E-04 Eh
   gradient norm :     0.0009862 Eh/α   predicted    -0.5506268E-05 ( -63.95%)
   displ. norm   :     0.0698796 α      lambda       -0.1196194E-04
   maximum displ.:     0.0608969 α      in ANC's #3, #9, #7, ...

........................................................................
.............................. CYCLE   46 ..............................
........................................................................
   1    -83.4042420 -0.834042E+02  0.815E-03    3.53       0.0  T
   2    -83.4042420 -0.996936E-08  0.487E-03    3.53       2.7  T
   3    -83.4042419  0.540691E-07  0.101E-03    3.53      12.8  T
   4    -83.4042420 -0.608461E-07  0.206E-04    3.53      62.5  T
   5    -83.4042420 -0.804974E-09  0.120E-04    3.53     107.6  T
     SCC iter.                  ...        0 min,  0.035 sec
     gradient                   ...        0 min,  0.010 sec
 * total energy  :   -82.3217091 Eh     change       -0.1620097E-04 Eh
   gradient norm :     0.0019408 Eh/α   predicted    -0.5997862E-05 ( -62.98%)
   displ. norm   :     0.0706982 α      lambda       -0.1120735E-04
   maximum displ.:     0.0620547 α      in ANC's #3, #9, #7, ...

........................................................................
.............................. CYCLE   47 ..............................
........................................................................
   1    -83.4041563 -0.834042E+02  0.853E-03    3.53       0.0  T
   2    -83.4041563 -0.131572E-07  0.509E-03    3.53       2.5  T
   3    -83.4041563  0.697576E-07  0.123E-03    3.53      10.5  T
   4    -83.4041563 -0.801670E-07  0.189E-04    3.53      68.4  T
   5    -83.4041563 -0.362590E-09  0.101E-04    3.53     127.8  T
     SCC iter.                  ...        0 min,  0.034 sec
     gradient                   ...        0 min,  0.010 sec
 * total energy  :   -82.3217245 Eh     change       -0.1535714E-04 Eh
   gradient norm :     0.0010721 Eh/α   predicted    -0.5625082E-05 ( -63.37%)
   displ. norm   :     0.0624467 α      lambda       -0.9389884E-05
   maximum displ.:     0.0559905 α      in ANC's #3, #9, #1, ...

........................................................................
.............................. CYCLE   48 ..............................
........................................................................
   1    -83.4042910 -0.834043E+02  0.744E-03    3.53       0.0  T
   2    -83.4042910 -0.105269E-07  0.443E-03    3.53       2.9  T
   3    -83.4042909  0.667094E-07  0.115E-03    3.53      11.3  T
   4    -83.4042910 -0.741865E-07  0.192E-04    3.53      67.3  T
   5    -83.4042910 -0.752038E-09  0.119E-04    3.53     108.6  T
     SCC iter.                  ...        0 min,  0.034 sec
     gradient                   ...        0 min,  0.010 sec
 * total energy  :   -82.3217379 Eh     change       -0.1340284E-04 Eh
   gradient norm :     0.0009633 Eh/α   predicted    -0.4709392E-05 ( -64.86%)
   displ. norm   :     0.0560874 α      lambda       -0.8573875E-05
   maximum displ.:     0.0507373 α      in ANC's #3, #9, #1, ...

........................................................................
.............................. CYCLE   49 ..............................
........................................................................
   1    -83.4043575 -0.834044E+02  0.671E-03    3.53       0.0  T
   2    -83.4043575 -0.766003E-08  0.399E-03    3.53       3.2  T
   3    -83.4043574  0.781029E-07  0.123E-03    3.53      10.5  T
   4    -83.4043575 -0.857875E-07  0.174E-04    3.53      74.3  T
   5    -83.4043575 -0.636462E-09  0.112E-04    3.53     115.7  T
     SCC iter.                  ...        0 min,  0.034 sec
     gradient                   ...        0 min,  0.010 sec
 * total energy  :   -82.3217501 Eh     change       -0.1227417E-04 Eh
   gradient norm :     0.0012124 Eh/α   predicted    -0.4303097E-05 ( -64.94%)
   displ. norm   :     0.0551298 α      lambda       -0.8602112E-05
   maximum displ.:     0.0495876 α      in ANC's #3, #1, #9, ...

........................................................................
.............................. CYCLE   50 ..............................
........................................................................
   1    -83.4043769 -0.834044E+02  0.652E-03    3.53       0.0  T
   2    -83.4043769 -0.647900E-08  0.388E-03    3.53       3.3  T
   3    -83.4043769  0.718475E-07  0.118E-03    3.53      10.9  T
   4    -83.4043770 -0.790486E-07  0.161E-04    3.53      80.4  T
   5    -83.4043770 -0.442242E-09  0.107E-04    3.53     120.3  T
     SCC iter.                  ...        0 min,  0.034 sec
     gradient                   ...        0 min,  0.010 sec
 * total energy  :   -82.3217625 Eh     change       -0.1234856E-04 Eh
   gradient norm :     0.0007291 Eh/α   predicted    -0.4311807E-05 ( -65.08%)
   displ. norm   :     0.0574329 α      lambda       -0.8743708E-05
   maximum displ.:     0.0511518 α      in ANC's #3, #1, #2, ...

........................................................................
.............................. CYCLE   51 ..............................
........................................................................
   1    -83.4044625 -0.834045E+02  0.664E-03    3.53       0.0  T
   2    -83.4044625 -0.462639E-08  0.397E-03    3.53       3.2  T
   3    -83.4044624  0.101976E-06  0.138E-03    3.53       9.3  T
   4    -83.4044625 -0.110983E-06  0.166E-04    3.53      77.9  T
   5    -83.4044625 -0.614136E-09  0.104E-04    3.53     123.7  T
     SCC iter.                  ...        0 min,  0.034 sec
     gradient                   ...        0 min,  0.010 sec
 * total energy  :   -82.3217752 Eh     change       -0.1270972E-04 Eh
   gradient norm :     0.0004706 Eh/α   predicted    -0.4379476E-05 ( -65.54%)
   displ. norm   :     0.0599434 α      lambda       -0.8904487E-05
   maximum displ.:     0.0528566 α      in ANC's #3, #1, #2, ...

........................................................................
.............................. CYCLE   52 ..............................
........................................................................
   1    -83.4045172 -0.834045E+02  0.650E-03    3.53       0.0  T
   2    -83.4045172 -0.572969E-08  0.389E-03    3.53       3.3  T
   3    -83.4045171  0.701619E-07  0.118E-03    3.53      11.0  T
   4    -83.4045172 -0.770711E-07  0.162E-04    3.53      79.7  T
   5    -83.4045172 -0.507271E-09  0.105E-04    3.53     123.3  T
     SCC iter.                  ...        0 min,  0.044 sec
     gradient                   ...        0 min,  0.010 sec
 * total energy  :   -82.3217881 Eh     change       -0.1291369E-04 Eh
   gradient norm :     0.0003494 Eh/α   predicted    -0.4460944E-05 ( -65.46%)
   displ. norm   :     0.0615250 α      lambda       -0.8852879E-05
   maximum displ.:     0.0539720 α      in ANC's #3, #1, #2, ...

........................................................................
.............................. CYCLE   53 ..............................
........................................................................
   1    -83.4045202 -0.834045E+02  0.686E-03    3.53       0.0  T
   2    -83.4045202 -0.569399E-08  0.412E-03    3.53       3.1  T
   3    -83.4045201  0.859834E-07  0.126E-03    3.53      10.2  T
   4    -83.4045202 -0.933951E-07  0.170E-04    3.53      76.1  T
   5    -83.4045202 -0.575071E-09  0.107E-04    3.53     120.8  T
     SCC iter.                  ...        0 min,  0.034 sec
     gradient                   ...        0 min,  0.010 sec
 * total energy  :   -82.3218010 Eh     change       -0.1285820E-04 Eh
   gradient norm :     0.0003037 Eh/α   predicted    -0.4435119E-05 ( -65.51%)
   displ. norm   :     0.0612149 α      lambda       -0.8554570E-05
   maximum displ.:     0.0536483 α      in ANC's #3, #1, #2, ...

........................................................................
.............................. CYCLE   54 ..............................
........................................................................
   1    -83.4045589 -0.834046E+02  0.634E-03    3.53       0.0  T
   2    -83.4045589 -0.549764E-08  0.379E-03    3.53       3.4  T
   3    -83.4045589  0.519125E-07  0.102E-03    3.53      12.6  T
   4    -83.4045589 -0.572921E-07  0.147E-04    3.53      87.8  T
   5    -83.4045589 -0.247752E-09  0.989E-05    3.53     130.5  T
     SCC iter.                  ...        0 min,  0.033 sec
     gradient                   ...        0 min,  0.010 sec
 * total energy  :   -82.3218135 Eh     change       -0.1249835E-04 Eh
   gradient norm :     0.0002689 Eh/α   predicted    -0.4285604E-05 ( -65.71%)
   displ. norm   :     0.0599921 α      lambda       -0.8237888E-05
   maximum displ.:     0.0524863 α      in ANC's #3, #1, #2, ...

........................................................................
.............................. CYCLE   55 ..............................
........................................................................
   1    -83.4045573 -0.834046E+02  0.629E-03    3.53       0.0  T
   2    -83.4045573 -0.525539E-08  0.377E-03    3.53       3.4  T
   3    -83.4045573  0.304705E-07  0.801E-04    3.53      16.1  T
   4    -83.4045573 -0.342301E-07  0.133E-04    3.53      97.0  T
     SCC iter.                  ...        0 min,  0.027 sec
     gradient                   ...        0 min,  0.010 sec
 * total energy  :   -82.3218256 Eh     change       -0.1210348E-04 Eh
   gradient norm :     0.0002575 Eh/α   predicted    -0.4126155E-05 ( -65.91%)
   displ. norm   :     0.0595731 α      lambda       -0.8123639E-05
   maximum displ.:     0.0518594 α      in ANC's #3, #1, #2, ...

........................................................................
.............................. CYCLE   56 ..............................
........................................................................
   1    -83.4045649 -0.834046E+02  0.576E-03    3.53       0.0  T
   2    -83.4045649 -0.399309E-08  0.344E-03    3.53       3.8  T
   3    -83.4045649  0.374454E-07  0.850E-04    3.53      15.2  T
   4    -83.4045649 -0.412784E-07  0.131E-04    3.53      98.2  T
     SCC iter.                  ...        0 min,  0.027 sec
     gradient                   ...        0 min,  0.010 sec
 * total energy  :   -82.3218375 Eh     change       -0.1197652E-04 Eh
   gradient norm :     0.0002551 Eh/α   predicted    -0.4068762E-05 ( -66.03%)
   displ. norm   :     0.0607649 α      lambda       -0.8280927E-05
   maximum displ.:     0.0523416 α      in ANC's #3, #1, #2, ...

........................................................................
.............................. CYCLE   57 ..............................
........................................................................
   1    -83.4045746 -0.834046E+02  0.586E-03    3.53       0.0  T
   2    -83.4045746 -0.422375E-08  0.350E-03    3.53       3.7  T
   3    -83.4045746  0.137228E-07  0.550E-04    3.53      23.5  T
   4    -83.4045746 -0.160287E-07  0.126E-04    3.53     102.3  T
     SCC iter.                  ...        0 min,  0.028 sec
     gradient                   ...        0 min,  0.010 sec
 * total energy  :   -82.3218497 Eh     change       -0.1213332E-04 Eh
   gradient norm :     0.0002560 Eh/α   predicted    -0.4152202E-05 ( -65.78%)
   displ. norm   :     0.0648752 α      lambda       -0.8663611E-05
   maximum displ.:     0.0552696 α      in ANC's #3, #1, #2, ...

........................................................................
.............................. CYCLE   58 ..............................
........................................................................
   1    -83.4045712 -0.834046E+02  0.590E-03    3.53       0.0  T
   2    -83.4045712 -0.442382E-08  0.351E-03    3.53       3.7  T
   3    -83.4045712  0.219746E-07  0.674E-04    3.53      19.1  T
   4    -83.4045712 -0.250893E-07  0.124E-04    3.53     104.2  T
     SCC iter.                  ...        0 min,  0.027 sec
     gradient                   ...        0 min,  0.010 sec
 * total energy  :   -82.3218624 Eh     change       -0.1275423E-04 Eh
   gradient norm :     0.0002579 Eh/α   predicted    -0.4340332E-05 ( -65.97%)
   displ. norm   :     0.0686188 α      lambda       -0.8986893E-05
   maximum displ.:     0.0578923 α      in ANC's #3, #1, #2, ...

........................................................................
.............................. CYCLE   59 ..............................
........................................................................
   1    -83.4045880 -0.834046E+02  0.627E-03    3.53       0.0  T
   2    -83.4045880 -0.490178E-08  0.373E-03    3.53       3.5  T
   3    -83.4045880  0.117016E-07  0.529E-04    3.53      24.4  T
   4    -83.4045880 -0.143980E-07  0.127E-04    3.53     101.5  T
     SCC iter.                  ...        0 min,  0.030 sec
     gradient                   ...        0 min,  0.010 sec
 * total energy  :   -82.3218756 Eh     change       -0.1313858E-04 Eh
   gradient norm :     0.0002507 Eh/α   predicted    -0.4507225E-05 ( -65.69%)
   displ. norm   :     0.0720085 α      lambda       -0.9128209E-05
   maximum displ.:     0.0604170 α      in ANC's #3, #1, #2, ...

........................................................................
.............................. CYCLE   60 ..............................
........................................................................
   1    -83.4045947 -0.834046E+02  0.644E-03    3.53       0.0  T
   2    -83.4045948 -0.535594E-08  0.382E-03    3.53       3.4  T
   3    -83.4045947  0.184474E-07  0.639E-04    3.53      20.2  T
   4    -83.4045948 -0.218001E-07  0.127E-04    3.53     101.8  T
     SCC iter.                  ...        0 min,  0.027 sec
     gradient                   ...        0 min,  0.010 sec
 * total energy  :   -82.3218889 Eh     change       -0.1334613E-04 Eh
   gradient norm :     0.0002468 Eh/α   predicted    -0.4579251E-05 ( -65.69%)
   displ. norm   :     0.0730086 α      lambda       -0.8948897E-05
   maximum displ.:     0.0611494 α      in ANC's #3, #1, #2, ...

........................................................................
.............................. CYCLE   61 ..............................
........................................................................
   1    -83.4046031 -0.834046E+02  0.661E-03    3.53       0.0  T
   2    -83.4046031 -0.535377E-08  0.392E-03    3.53       3.3  T
   3    -83.4046031  0.192207E-07  0.642E-04    3.53      20.1  T
   4    -83.4046031 -0.225669E-07  0.138E-04    3.53      93.8  T
     SCC iter.                  ...        0 min,  0.027 sec
     gradient                   ...        0 min,  0.010 sec
 * total energy  :   -82.3219020 Eh     change       -0.1309067E-04 Eh
   gradient norm :     0.0002394 Eh/α   predicted    -0.4489166E-05 ( -65.71%)
   displ. norm   :     0.0714399 α      lambda       -0.8513191E-05
   maximum displ.:     0.0599506 α      in ANC's #3, #1, #2, ...

........................................................................
.............................. CYCLE   62 ..............................
........................................................................
   1    -83.4046218 -0.834046E+02  0.638E-03    3.53       0.0  T
   2    -83.4046218 -0.487395E-08  0.379E-03    3.53       3.4  T
   3    -83.4046218  0.166135E-07  0.601E-04    3.53      21.5  T
   4    -83.4046218 -0.195435E-07  0.132E-04    3.53      98.0  T
     SCC iter.                  ...        0 min,  0.027 sec
     gradient                   ...        0 min,  0.010 sec
 * total energy  :   -82.3219145 Eh     change       -0.1247434E-04 Eh
   gradient norm :     0.0002379 Eh/α   predicted    -0.4269896E-05 ( -65.77%)
   displ. norm   :     0.0682388 α      lambda       -0.7967787E-05
   maximum displ.:     0.0575320 α      in ANC's #3, #1, #2, ...

........................................................................
.............................. CYCLE   63 ..............................
........................................................................
   1    -83.4046257 -0.834046E+02  0.618E-03    3.53       0.0  T
   2    -83.4046257 -0.450991E-08  0.367E-03    3.53       3.5  T
   3    -83.4046257  0.163220E-07  0.595E-04    3.53      21.7  T
   4    -83.4046257 -0.192546E-07  0.125E-04    3.53     102.9  T
     SCC iter.                  ...        0 min,  0.027 sec
     gradient                   ...        0 min,  0.010 sec
 * total energy  :   -82.3219262 Eh     change       -0.1171647E-04 Eh
   gradient norm :     0.0002303 Eh/α   predicted    -0.3996004E-05 ( -65.89%)
   displ. norm   :     0.0643577 α      lambda       -0.7417529E-05
   maximum displ.:     0.0546628 α      in ANC's #3, #1, #2, ...

........................................................................
.............................. CYCLE   64 ..............................
........................................................................
   1    -83.4046459 -0.834046E+02  0.577E-03    3.53       0.0  T
   2    -83.4046459 -0.380078E-08  0.343E-03    3.53       3.8  T
   3    -83.4046459  0.130520E-07  0.548E-04    3.53      23.5  T
   4    -83.4046460 -0.156259E-07  0.113E-04    3.53     114.0  T
     SCC iter.                  ...        0 min,  0.027 sec
     gradient                   ...        0 min,  0.010 sec
 * total energy  :   -82.3219372 Eh     change       -0.1098178E-04 Eh
   gradient norm :     0.0002246 Eh/α   predicted    -0.3719409E-05 ( -66.13%)
   displ. norm   :     0.0603859 α      lambda       -0.6942170E-05
   maximum displ.:     0.0517251 α      in ANC's #3, #1, #2, ...

........................................................................
.............................. CYCLE   65 ..............................
........................................................................
   1    -83.4046574 -0.834047E+02  0.547E-03    3.53       0.0  T
   2    -83.4046574 -0.338942E-08  0.325E-03    3.53       4.0  T
   3    -83.4046574  0.197571E-07  0.650E-04    3.53      19.9  T
   4    -83.4046574 -0.226553E-07  0.110E-04    3.53     117.7  T
     SCC iter.                  ...        0 min,  0.027 sec
     gradient                   ...        0 min,  0.010 sec
 * total energy  :   -82.3219475 Eh     change       -0.1031103E-04 Eh
   gradient norm :     0.0002170 Eh/α   predicted    -0.3480539E-05 ( -66.24%)
   displ. norm   :     0.0571777 α      lambda       -0.6583183E-05
   maximum displ.:     0.0494021 α      in ANC's #3, #1, #2, ...

........................................................................
.............................. CYCLE   66 ..............................
........................................................................
   1    -83.4046696 -0.834047E+02  0.525E-03    3.53       0.0  T
   2    -83.4046696 -0.279910E-08  0.313E-03    3.53       4.1  T
   3    -83.4046696  0.346670E-07  0.806E-04    3.53      16.0  T
   4    -83.4046696 -0.381855E-07  0.121E-04    3.53     106.8  T
     SCC iter.                  ...        0 min,  0.027 sec
     gradient                   ...        0 min,  0.010 sec
 * total energy  :   -82.3219573 Eh     change       -0.9795891E-05 Eh
   gradient norm :     0.0002116 Eh/α   predicted    -0.3299674E-05 ( -66.32%)
   displ. norm   :     0.0547523 α      lambda       -0.6320367E-05
   maximum displ.:     0.0476969 α      in ANC's #3, #1, #2, ...
 * RMSD in coord.:     0.1811511 α      energy gain  -0.3319576E-03 Eh

generating ANC from model Hessian ...
Using Lindh-Hessian (1995)
 Shifting diagonal of input Hessian by    9.9169083368801179E-003
 Lowest  eigenvalues of input Hessian
    0.000000    0.000000    0.000000    0.000000    0.000000    0.000000
    0.010000    0.010050    0.010109    0.010538    0.011304    0.011737
    0.012062    0.013179    0.013272    0.013940    0.015061    0.015084
 Highest eigenvalues
    1.721231    1.891854    1.895122    1.944488    8.765982    9.413971


........................................................................
.............................. CYCLE   67 ..............................
........................................................................
   1    -83.4046923 -0.834047E+02  0.511E-03    3.53       0.0  T
   2    -83.4046923 -0.254953E-08  0.305E-03    3.53       4.2  T
   3    -83.4046923  0.440375E-07  0.888E-04    3.53      14.5  T
   4    -83.4046923 -0.480018E-07  0.119E-04    3.53     108.5  T
     SCC iter.                  ...        0 min,  0.027 sec
     gradient                   ...        0 min,  0.010 sec
 * total energy  :   -82.3219667 Eh     change       -0.9397168E-05 Eh
   gradient norm :     0.0002072 Eh/α   predicted     0.0000000E+00 (-100.00%)
[...]
        73        2.0000           -0.3884835             -10.5712
        74        2.0000           -0.3530816              -9.6078
        75        2.0000           -0.3509156              -9.5489 (HOMO)
        76                         -0.2214691              -6.0265 (LUMO)
        77                         -0.2140009              -5.8233
        78                         -0.1905811              -5.1860
        79                         -0.1021562              -2.7798
        80                         -0.0944604              -2.5704
       ...                                ...                  ...
       144                          0.6730849              18.3156
      -------------------------------------------------------------
                  HL-Gap            0.1294464 Eh            3.5224 eV
             Fermi-level           -0.2861923 Eh           -7.7877 eV

 SCC (total)                   0 d,  0 h,  0 min,  0.033 sec
 SCC setup                      ...        0 min,  0.000 sec (  0.487%)
 Dispersion                     ...        0 min,  0.000 sec (  0.982%)
 classical contributions        ...        0 min,  0.000 sec (  0.254%)
 integral evaluation            ...        0 min,  0.002 sec (  5.774%)
 iterations                     ...        0 min,  0.021 sec ( 62.079%)
 molecular gradient             ...        0 min,  0.010 sec ( 29.575%)
 printout                       ...        0 min,  0.000 sec (  0.831%)

         :::::::::::::::::::::::::::::::::::::::::::::::::::::
         ::                     SUMMARY                     ::
         :::::::::::::::::::::::::::::::::::::::::::::::::::::
         :: total energy             -82.322096418846 Eh    ::
         :: gradient norm              0.000163948445 Eh/a0 ::
         :: HOMO-LUMO gap              3.522416956373 eV    ::
         ::.................................................::
         :: SCC energy               -83.404841027740 Eh    ::
         :: -> isotropic ES            0.147152690147 Eh    ::
         :: -> anisotropic ES          0.012378137373 Eh    ::
         :: -> anisotropic XC          0.026750382278 Eh    ::
         :: -> dispersion             -0.061169738142 Eh    ::
         :: repulsion energy           1.081917766400 Eh    ::
         :: add. restraining           0.000013656703 Eh    ::
         :: total charge              -0.000000000000 e     ::
         :::::::::::::::::::::::::::::::::::::::::::::::::::::

           -------------------------------------------------
          |                Property Printout                |
           -------------------------------------------------

    * Orbital Energies and Occupations

         #    Occupation            Energy/Eh            Energy/eV
      -------------------------------------------------------------
         1        2.0000           -0.6882148             -18.7273
       ...           ...                  ...                  ...
        63        2.0000           -0.4369660             -11.8905
        64        2.0000           -0.4350526             -11.8384
        65        2.0000           -0.4253914             -11.5755
        66        2.0000           -0.4195403             -11.4163
        67        2.0000           -0.4186928             -11.3932
        68        2.0000           -0.4118454             -11.2069
        69        2.0000           -0.4056401             -11.0380
        70        2.0000           -0.3987446             -10.8504
        71        2.0000           -0.3968153             -10.7979
        72        2.0000           -0.3959014             -10.7730
        73        2.0000           -0.3884835             -10.5712
        74        2.0000           -0.3530816              -9.6078
        75        2.0000           -0.3509156              -9.5489 (HOMO)
        76                         -0.2214691              -6.0265 (LUMO)
        77                         -0.2140009              -5.8233
        78                         -0.1905811              -5.1860
        79                         -0.1021562              -2.7798
        80                         -0.0944604              -2.5704
        81                          0.0081032               0.2205
        82                          0.0110341               0.3003
        83                          0.0151917               0.4134
        84                          0.0292463               0.7958
        85                          0.0297333               0.8091
        86                          0.0568196               1.5461
       ...                                ...                  ...
       144                          0.6730849              18.3156
      -------------------------------------------------------------
                  HL-Gap            0.1294464 Eh            3.5224 eV
             Fermi-level           -0.2861923 Eh           -7.7877 eV

     #   Z          covCN         q      C6AA      α(0)
     1   6 C        3.755    -0.117    22.795     6.808
     2   6 C        3.857     0.129    18.458     6.110
     3   8 O        1.638    -0.370    20.286     6.080
     4   6 C        3.755    -0.116    22.770     6.804
     5   6 C        3.858     0.129    18.455     6.110
     6   6 C        3.755    -0.117    22.799     6.808
     7   6 C        3.755    -0.116    22.777     6.805
     8   8 O        1.638    -0.373    20.348     6.089
     9   5 B        2.658     0.431    15.575     6.646
    10   6 C        2.871    -0.085    30.118     8.996
    11   6 C        2.895    -0.030    28.745     8.790
    12   6 C        3.860    -0.012    20.747     6.478
    13   1 H        0.925     0.030     2.582     2.513
    14   6 C        3.863    -0.019    20.864     6.496
    15   1 H        0.925     0.042     2.428     2.437
    16   6 C        2.863    -0.086    30.155     9.001
    17   5 B        2.664     0.433    15.532     6.632
    18   8 O        1.638    -0.374    20.370     6.092
    19   6 C        3.861     0.129    18.450     6.109
    20   6 C        3.755    -0.117    22.800     6.809
    21   6 C        3.755    -0.116    22.781     6.806
    22   6 C        3.862     0.129    18.451     6.109
    23   6 C        3.755    -0.116    22.786     6.806
    24   6 C        3.755    -0.118    22.806     6.809
    25   8 O        1.638    -0.371    20.301     6.082
    26   6 C        2.905    -0.029    28.713     8.786
    27   6 C        3.864    -0.017    20.829     6.490
    28   1 H        0.924     0.044     2.398     2.422
    29   6 C        2.898    -0.034    28.849     8.807
    30   6 C        2.889    -0.038    28.943     8.820
    31   6 C        3.862    -0.011    20.729     6.475
    32   1 H        0.925     0.029     2.596     2.520
    33   1 H        0.925     0.054     2.270     2.356
    34   1 H        0.925     0.039     2.458     2.452
    35   1 H        0.925     0.051     2.302     2.373
    36   1 H        0.925     0.052     2.294     2.368
    37   1 H        0.925     0.043     2.403     2.424
    38   1 H        0.925     0.042     2.425     2.435
    39   1 H        0.925     0.040     2.454     2.450
    40   1 H        0.925     0.051     2.303     2.373
    41   1 H        0.925     0.054     2.271     2.357
    42   1 H        0.925     0.042     2.419     2.432
    43   1 H        0.925     0.052     2.297     2.370
    44   1 H        0.925     0.044     2.402     2.424
    45   1 H        0.925     0.035     2.515     2.480
    46   1 H        0.925     0.054     2.267     2.354
    47   1 H        0.925     0.040     2.451     2.448
    48   1 H        0.925     0.052     2.292     2.368
    49   1 H        0.925     0.052     2.294     2.368
    50   1 H        0.925     0.044     2.402     2.424
    51   1 H        0.925     0.043     2.414     2.429
    52   1 H        0.925     0.043     2.410     2.427
    53   1 H        0.925     0.053     2.286     2.364
    54   1 H        0.925     0.044     2.400     2.423
    55   1 H        0.925     0.040     2.448     2.447
    56   1 H        0.925     0.052     2.291     2.367
    57   1 H        0.925     0.055     2.260     2.351
    58   1 H        0.925     0.035     2.520     2.482
    59   1 H        0.926     0.026     2.641     2.542
    60   1 H        0.925     0.024     2.679     2.560

 Mol. C6AA /au·bohr⁶  :      32806.909208
 Mol. C8AA /au·bohr⁸  :     759529.378901
 Mol. α(0) /au        :        273.189774


Wiberg/Mayer (AO) data.
largest (>0.10) Wiberg bond orders for each atom

 ---------------------------------------------------------------------------
     #   Z sym  total        # sym  WBO       # sym  WBO       # sym  WBO
 ---------------------------------------------------------------------------
     1   6 C    3.994 --     2 C    0.996    34 H    0.985    33 H    0.983
                            35 H    0.982
     2   6 C    3.943 --     1 C    0.996     4 C    0.991     3 O    0.954
                             5 C    0.936
     3   8 O    2.235 --     9 B    1.128     2 C    0.954
     4   6 C    3.994 --     2 C    0.991    38 H    0.984    37 H    0.984
                            36 H    0.983
     5   6 C    3.943 --     6 C    0.996     7 C    0.990     8 O    0.954
                             2 C    0.936
     6   6 C    3.994 --     5 C    0.996    39 H    0.985    41 H    0.983
                            40 H    0.982
     7   6 C    3.995 --     5 C    0.990    42 H    0.984    44 H    0.984
                            43 H    0.983
     8   8 O    2.230 --     9 B    1.126     5 C    0.954
     9   5 B    3.377 --     3 O    1.128     8 O    1.126    10 C    1.004
    10   6 C    3.976 --    11 C    1.797     9 B    1.004    27 C    0.966
    11   6 C    3.989 --    10 C    1.797    12 C    1.086    45 H    0.965
    12   6 C    3.950 --    11 C    1.086    13 H    0.971    31 C    0.894
                            14 C    0.882
    13   1 H    0.999 --    12 C    0.971
    14   6 C    3.944 --    16 C    1.063    15 H    0.969    31 C    0.898
                            12 C    0.882
    15   1 H    0.998 --    14 C    0.969
    16   6 C    3.979 --    26 C    1.801    14 C    1.063    17 B    0.995
    17   5 B    3.374 --    25 O    1.134    18 O    1.127    16 C    0.995
    18   8 O    2.231 --    17 B    1.127    19 C    0.952
    19   6 C    3.943 --    20 C    0.997    21 C    0.991    18 O    0.952
                            22 C    0.937
    20   6 C    3.994 --    19 C    0.997    47 H    0.984    46 H    0.983
                            48 H    0.982
    21   6 C    3.994 --    19 C    0.991    51 H    0.984    50 H    0.984
                            49 H    0.983
    22   6 C    3.942 --    24 C    0.997    23 C    0.991    25 O    0.951
                            19 C    0.937
    23   6 C    3.995 --    22 C    0.991    52 H    0.984    54 H    0.984
                            53 H    0.983
    24   6 C    3.994 --    22 C    0.997    55 H    0.984    57 H    0.983
                            56 H    0.982
    25   8 O    2.236 --    17 B    1.134    22 C    0.951
    26   6 C    3.986 --    16 C    1.801    27 C    0.989    58 H    0.968
    27   6 C    3.995 --    26 C    0.989    29 C    0.985    28 H    0.972
                            10 C    0.966
    28   1 H    0.998 --    27 C    0.972
    29   6 C    3.990 --    30 C    1.873    27 C    0.985    59 H    0.969
    30   6 C    3.991 --    29 C    1.873    31 C    1.069    60 H    0.967
    31   6 C    3.947 --    30 C    1.069    32 H    0.971    14 C    0.898
                            12 C    0.894
    32   1 H    0.999 --    31 C    0.971
    33   1 H    0.997 --     1 C    0.983
    34   1 H    0.998 --     1 C    0.985
    35   1 H    0.997 --     1 C    0.982
    36   1 H    0.997 --     4 C    0.983
    37   1 H    0.998 --     4 C    0.984
    38   1 H    0.998 --     4 C    0.984
    39   1 H    0.998 --     6 C    0.985
    40   1 H    0.997 --     6 C    0.982
    41   1 H    0.997 --     6 C    0.983
    42   1 H    0.998 --     7 C    0.984
    43   1 H    0.997 --     7 C    0.983
    44   1 H    0.998 --     7 C    0.984
    45   1 H    0.999 --    11 C    0.965
    46   1 H    0.997 --    20 C    0.983
    47   1 H    0.998 --    20 C    0.984
    48   1 H    0.997 --    20 C    0.982
    49   1 H    0.997 --    21 C    0.983
    50   1 H    0.998 --    21 C    0.984
    51   1 H    0.998 --    21 C    0.984
    52   1 H    0.998 --    23 C    0.984
    53   1 H    0.997 --    23 C    0.983
    54   1 H    0.998 --    23 C    0.984
    55   1 H    0.998 --    24 C    0.984
    56   1 H    0.997 --    24 C    0.982
    57   1 H    0.997 --    24 C    0.983
    58   1 H    0.999 --    26 C    0.968
    59   1 H    0.999 --    29 C    0.969
    60   1 H    0.999 --    30 C    0.967
 ---------------------------------------------------------------------------

Topologies differ in total number of bonds
Writing topology from bond orders to xtbtopo.mol

molecular dipole:
                 x           y           z       tot (Debye)
 q only:       -0.195      -0.552       0.255
   full:       -0.193      -0.676       0.323       1.967
molecular quadrupole (traceless):
                xx          xy          yy          xz          yz          zz
 q only:      -58.408      13.709      61.266     -21.032     -51.362      -2.858
  q+dip:      -69.646      13.571      73.926     -18.645     -63.617      -4.281
   full:      -70.518      12.694      75.084     -20.795     -64.672      -4.566

           -------------------------------------------------
          |                Geometry Summary                 |
           -------------------------------------------------

      molecular mass/u    :      382.1099696
   center of mass at/Å    :        2.9656562     -35.8682224      21.8004592
  moments of inertia/u·Å² :        0.1500412E+04   0.6150215E+04   0.6649706E+04
rotational constants/cm⁻¹ :        0.1123533E-01   0.2740983E-02   0.2535094E-02

 * 58 selected distances

     #   Z          #   Z                                           value/Å
     1   6 C        2   6 C                                       1.5276501
     2   6 C        3   8 O                                       1.4260444
     2   6 C        4   6 C                                       1.5339958
     5   6 C        6   6 C                                       1.5275856
     5   6 C        7   6 C                                       1.5342046
     5   6 C        8   8 O                                       1.4264990
     3   8 O        9   5 B                                       1.3672062
     8   8 O        9   5 B                                       1.3679026
     9   5 B       10   6 C                                       1.5571145 (max)
    10   6 C       11   6 C                                       1.3403535
    11   6 C       12   6 C                                       1.4611789
    12   6 C       13   1 H                                       1.0847755
    12   6 C       14   6 C                                       1.5210659
    14   6 C       15   1 H                                       1.0830275
    14   6 C       16   6 C                                       1.4732642
    17   5 B       18   8 O                                       1.3687859
    18   8 O       19   6 C                                       1.4273712
    19   6 C       20   6 C                                       1.5265957
    19   6 C       21   6 C                                       1.5340259
    22   6 C       23   6 C                                       1.5339653
    22   6 C       24   6 C                                       1.5265404
    17   5 B       25   8 O                                       1.3662123
    22   6 C       25   8 O                                       1.4283922
    16   6 C       26   6 C                                       1.3403085
    27   6 C       28   1 H                                       1.0914950
    29   6 C       30   6 C                                       1.3277546
    12   6 C       31   6 C                                       1.5013646
    14   6 C       31   6 C                                       1.5147957
    30   6 C       31   6 C                                       1.4665595
    31   6 C       32   1 H                                       1.0850182
     1   6 C       33   1 H                                       1.0872137
     1   6 C       34   1 H                                       1.0866311
     1   6 C       35   1 H                                       1.0851744
     4   6 C       36   1 H                                       1.0876741
     4   6 C       37   1 H                                       1.0870190
     4   6 C       38   1 H                                       1.0858553
     6   6 C       39   1 H                                       1.0866440
     6   6 C       40   1 H                                       1.0850956
     6   6 C       41   1 H                                       1.0871783
     7   6 C       42   1 H                                       1.0858161
     7   6 C       43   1 H                                       1.0876225
     7   6 C       44   1 H                                       1.0869906
    11   6 C       45   1 H                                       1.0830284
    20   6 C       46   1 H                                       1.0872451
    20   6 C       47   1 H                                       1.0866573
    20   6 C       48   1 H                                       1.0851195
    21   6 C       49   1 H                                       1.0876187
    21   6 C       50   1 H                                       1.0871815
    21   6 C       51   1 H                                       1.0858715
    23   6 C       52   1 H                                       1.0859372
    23   6 C       53   1 H                                       1.0874736
    23   6 C       54   1 H                                       1.0871647
    24   6 C       55   1 H                                       1.0867405
    24   6 C       56   1 H                                       1.0850636
    24   6 C       57   1 H                                       1.0871052
    26   6 C       58   1 H                                       1.0812330
    29   6 C       59   1 H                                       1.0811445 (min)
    30   6 C       60   1 H                                       1.0834518

 * 5 distinct bonds (by element types)

   Z      Z             #   av. dist./Å        max./Å        min./Å
   1 H    6 C          32     1.0859771     1.0914950     1.0811445
   5 B    6 C           1     1.5571145     1.5571145     1.5571145
   6 C    6 C          17     1.4818358     1.5342046     1.3277546
   5 B    8 O           4     1.3675268     1.3687859     1.3662123
   6 C    8 O           4     1.4270767     1.4283922     1.4260444


optimized geometry written to: xtbopt.xyz


           -------------------------------------------------
          | TOTAL ENERGY              -82.322096418846 Eh   |
          | GRADIENT NORM               0.000163948445 Eh/α |
          | HOMO-LUMO GAP               3.522416956373 eV   |
           -------------------------------------------------

------------------------------------------------------------------------
 * finished run on 2022/07/09 at 18:32:52.309     
------------------------------------------------------------------------
 total:
 * wall-time:     0 d,  0 h,  0 min,  4.529 sec
 *  cpu-time:     0 d,  0 h,  0 min,  7.503 sec
 * ratio c/w:     1.657 speedup
 SCF:
 * wall-time:     0 d,  0 h,  0 min,  0.100 sec
 *  cpu-time:     0 d,  0 h,  0 min,  0.146 sec
 * ratio c/w:     1.466 speedup
 ANC optimizer:
 * wall-time:     0 d,  0 h,  0 min,  4.421 sec
 *  cpu-time:     0 d,  0 h,  0 min,  7.345 sec
 * ratio c/w:     1.661 speedup

