      -----------------------------------------------------------      
     |                   =====================                   |     
     |                           x T B                           |     
     |                   =====================                   |     
     |                         S. Grimme                         |     
     |          Mulliken Center for Theoretical Chemistry        |     
     |                    University of Bonn                     |     
      -----------------------------------------------------------      

   * xtb version 6.5.0 (homebrew) compiled by 'nhattrup@GPGGRP-SHANNON.CHEME.CMU.EDU' on 

   xtb is free software: you can redistribute it and/or modify it under
   the terms of the GNU Lesser General Public License as published by
   the Free Software Foundation, either version 3 of the License, or
   (at your option) any later version.
   
   xtb is distributed in the hope that it will be useful,
   but WITHOUT ANY WARRANTY; without even the implied warranty of
   MERCHANTABILITY or FITNESS FOR A PARTICULAR PURPOSE.  See the
   GNU Lesser General Public License for more details.
   
   Cite this work as:
   * C. Bannwarth, E. Caldeweyher, S. Ehlert, A. Hansen, P. Pracht,
     J. Seibert, S. Spicher, S. Grimme, WIREs Comput. Mol. Sci., 2020, 11,
     e01493. DOI: 10.1002/wcms.1493
   
   for GFN2-xTB:
   * C. Bannwarth, S. Ehlert and S. Grimme., J. Chem. Theory Comput., 2019,
     15, 1652-1671. DOI: 10.1021/acs.jctc.8b01176
   for GFN1-xTB:
   * S. Grimme, C. Bannwarth, P. Shushkov, J. Chem. Theory Comput., 2017,
     13, 1989-2009. DOI: 10.1021/acs.jctc.7b00118
   for GFN0-xTB:
   * P. Pracht, E. Caldeweyher, S. Ehlert, S. Grimme, ChemRxiv, 2019, preprint.
     DOI: 10.26434/chemrxiv.8326202.v1
   for GFN-FF:
   * S. Spicher and S. Grimme, Angew. Chem. Int. Ed., 2020, 59, 15665-15673.
     DOI: 10.1002/anie.202004239
   
   for ALPB and GBSA implicit solvation:
   * S. Ehlert, M. Stahn, S. Spicher, S. Grimme, J. Chem. Theory Comput.,
     2021, 17, 4250-4261. DOI: 10.1021/acs.jctc.1c00471
   
   for DFT-D4:
   * E. Caldeweyher, C. Bannwarth and S. Grimme, J. Chem. Phys., 2017,
     147, 034112. DOI: 10.1063/1.4993215
   * E. Caldeweyher, S. Ehlert, A. Hansen, H. Neugebauer, S. Spicher,
     C. Bannwarth and S. Grimme, J. Chem. Phys., 2019, 150, 154122.
     DOI: 10.1063/1.5090222
   * E. Caldeweyher, J.-M. Mewes, S. Ehlert and S. Grimme, Phys. Chem. Chem. Phys.
     2020, 22, 8499-8512. DOI: 10.1039/D0CP00502A
   
   for sTDA-xTB:
   * S. Grimme and C. Bannwarth, J. Chem. Phys., 2016, 145, 054103.
     DOI: 10.1063/1.4959605
   
   in the mass-spec context:
   * V. Asgeirsson, C. Bauer and S. Grimme, Chem. Sci., 2017, 8, 4879.
     DOI: 10.1039/c7sc00601b
   * J. Koopman and S. Grimme, ACS Omega 2019, 4, 12, 15120-15133.
     DOI: 10.1021/acsomega.9b02011
   
   for metadynamics refer to:
   * S. Grimme, J. Chem. Theory Comput., 2019, 155, 2847-2862
     DOI: 10.1021/acs.jctc.9b00143
   
   for SPH calculations refer to:
   * S. Spicher and S. Grimme, J. Chem. Theory Comput., 2021, 17, 1701-1714
     DOI: 10.1021/acs.jctc.0c01306
   
   with help from (in alphabetical order)
   P. Atkinson, C. Bannwarth, F. Bohle, G. Brandenburg, E. Caldeweyher
   M. Checinski, S. Dohm, S. Ehlert, S. Ehrlich, I. Gerasimov, C. Hölzer
   A. Katbashev, J. Koopman, C. Lavigne, S. Lehtola, F. März, M. Müller,
   F. Musil, H. Neugebauer, J. Pisarek, C. Plett, P. Pracht, F. Pultar,
   J. Seibert, P. Shushkov, S. Spicher, M. Stahn, M. Steiner, T. Strunk,
   J. Stückrath, T. Rose, and J. Unsleber
   
 * started run on 2022/07/09 at 18:33:33.605     

           -------------------------------------------------
          |                Calculation Setup                |
           -------------------------------------------------

          program call               : /opt/homebrew/bin/xtb bvl_bpin2_scan_3-9_xtb.xyz --chrg 0 --uhf 0 --opt --input xcontrol_bvl_bpin2_scan_3-9_xtb
          coordinate file            : bvl_bpin2_scan_3-9_xtb.xyz
          omp threads                :                     1

   ID    Z sym.   atoms
    1    6 C      1, 2, 4-7, 10-12, 14, 16, 19-24, 26, 27, 29-31
    2    8 O      3, 8, 18, 25
    3    5 B      9, 17
    4    1 H      13, 15, 28, 32-60
constraining bond 12 31 to    1.8333000 Å, actual value:    1.7241605 Å
constraining bond 10 29 to    1.5000000 Å, actual value:    1.6133499 Å

           -------------------------------------------------
          |                 G F N 2 - x T B                 |
           -------------------------------------------------

        Reference                      10.1021/acs.jctc.8b01176
      * Hamiltonian:
        H0-scaling (s, p, d)           1.850000    2.230000    2.230000
        zeta-weighting                 0.500000
      * Dispersion:
        s8                             2.700000
        a1                             0.520000
        a2                             5.000000
        s9                             5.000000
      * Repulsion:
        kExp                           1.500000    1.000000
        rExp                           1.000000
      * Coulomb:
        alpha                          2.000000
        third order                    shell-resolved
        anisotropic                    true
        a3                             3.000000
        a5                             4.000000
        cn-shift                       1.200000
        cn-exp                         4.000000
        max-rad                        5.000000


          ...................................................
          :                      SETUP                      :
          :.................................................:
          :  # basis functions                 144          :
          :  # atomic orbitals                 144          :
          :  # shells                           88          :
          :  # electrons                       150          :
          :  max. iterations                   250          :
          :  Hamiltonian                  GFN2-xTB          :
          :  restarted?                      false          :
          :  GBSA solvation                  false          :
          :  PC potential                    false          :
          :  electronic temp.          300.0000000     K    :
          :  accuracy                    1.0000000          :
          :  -> integral cutoff          0.2500000E+02      :
          :  -> integral neglect         0.1000000E-07      :
          :  -> SCF convergence          0.1000000E-05 Eh   :
          :  -> wf. convergence          0.1000000E-03 e    :
          :  Broyden damping             0.4000000          :
          ...................................................

 iter      E             dE          RMSdq      gap      omega  full diag
   1    -82.9310126 -0.829310E+02  0.463E+00    2.70       0.0  T
   2    -83.3210447 -0.390032E+00  0.285E+00    2.24       1.0  T
   3    -83.3345177 -0.134730E-01  0.137E+00    2.58       1.0  T
   4    -83.3516787 -0.171610E-01  0.505E-01    2.44       1.0  T
   5    -83.3664999 -0.148213E-01  0.238E-01    2.48       1.0  T
   6    -83.3688103 -0.231039E-02  0.114E-01    2.50       1.0  T
   7    -83.3689757 -0.165389E-03  0.298E-02    2.49       1.0  T
   8    -83.3689984 -0.226330E-04  0.895E-03    2.49       1.4  T
   9    -83.3689999 -0.150492E-05  0.407E-03    2.49       3.2  T
  10    -83.3690000 -0.114041E-06  0.219E-03    2.49       5.9  T
  11    -83.3690001 -0.157336E-06  0.772E-04    2.49      16.7  T
  12    -83.3690002 -0.230397E-07  0.308E-04    2.49      41.9  T

   *** convergence criteria satisfied after 12 iterations ***

         #    Occupation            Energy/Eh            Energy/eV
      -------------------------------------------------------------
         1        2.0000           -0.6936669             -18.8756
       ...           ...                  ...                  ...
        69        2.0000           -0.4080850             -11.1046
        70        2.0000           -0.4017863             -10.9332
        71        2.0000           -0.3990093             -10.8576
        72        2.0000           -0.3950475             -10.7498
        73        2.0000           -0.3769988             -10.2587
        74        2.0000           -0.3765783             -10.2472
        75        2.0000           -0.3151644              -8.5761 (HOMO)
        76                         -0.2237234              -6.0878 (LUMO)
        77                         -0.2176969              -5.9238
        78                         -0.1520045              -4.1363
        79                         -0.1034999              -2.8164
        80                         -0.0679176              -1.8481
       ...                                ...                  ...
       144                          0.6971894              18.9715
      -------------------------------------------------------------
                  HL-Gap            0.0914410 Eh            2.4882 eV
             Fermi-level           -0.2694439 Eh           -7.3319 eV

 SCC (total)                   0 d,  0 h,  0 min,  0.068 sec
 SCC setup                      ...        0 min,  0.000 sec (  0.367%)
 Dispersion                     ...        0 min,  0.000 sec (  0.616%)
 classical contributions        ...        0 min,  0.000 sec (  0.261%)
 integral evaluation            ...        0 min,  0.006 sec (  9.000%)
 iterations                     ...        0 min,  0.033 sec ( 48.261%)
 molecular gradient             ...        0 min,  0.028 sec ( 40.913%)
 printout                       ...        0 min,  0.000 sec (  0.573%)

         :::::::::::::::::::::::::::::::::::::::::::::::::::::
         ::                     SUMMARY                     ::
         :::::::::::::::::::::::::::::::::::::::::::::::::::::
         :: total energy             -82.118978545003 Eh    ::
         :: gradient norm              1.679635005838 Eh/a0 ::
         :: HOMO-LUMO gap              2.488236136985 eV    ::
         ::.................................................::
         :: SCC energy               -83.369000154064 Eh    ::
         :: -> isotropic ES            0.148602332824 Eh    ::
         :: -> anisotropic ES          0.010691512705 Eh    ::
         :: -> anisotropic XC          0.025593824923 Eh    ::
         :: -> dispersion             -0.061007509510 Eh    ::
         :: repulsion energy           1.072540710920 Eh    ::
         :: add. restraining           0.176836451071 Eh    ::
         :: total charge               0.000000000000 e     ::
         :::::::::::::::::::::::::::::::::::::::::::::::::::::

      ----------------------------------------------------------- 
     |                   =====================                   |
     |                        A N C O P T                        |
     |                   =====================                   |
     |               Approximate Normal Coordinate               |
     |                Rational Function Optimizer                |
      ----------------------------------------------------------- 

          ...................................................
          :                      SETUP                      :
          :.................................................:
          :   optimization level            normal          :
          :   max. optcycles                   200          :
          :   ANC micro-cycles                  20          :
          :   degrees of freedom               174          :
          :.................................................:
          :   RF solver                   davidson          :
          :   write xtbopt.log                true          :
          :   linear?                        false          :
          :   energy convergence         0.5000000E-05 Eh   :
          :   grad. convergence          0.1000000E-02 Eh/α :
          :   maximium RF displ.         1.0000000          :
          :   Hlow (freq-cutoff)         0.1000000E-01      :
          :   Hmax (freq-cutoff)         5.0000000          :
          :   S6 in model hess.         20.0000000          :
          ...................................................

generating ANC from model Hessian ...
Using Lindh-Hessian (1995)
 Shifting diagonal of input Hessian by   0.19899428721178175     
 Lowest  eigenvalues of input Hessian
    0.010000    0.132832    0.000000    0.000000    0.000000    0.000000
    0.000000    0.000000    0.199119    0.199140    0.199284    0.200683
    0.200899    0.201859    0.202299    0.202374    0.203784    0.204169
 Highest eigenvalues
    1.923075    1.954081    2.134749    2.189012    9.167669    9.318178


........................................................................
.............................. CYCLE    1 ..............................
........................................................................
   1    -83.3690002 -0.833690E+02  0.151E-04    2.49       0.0  T
   2    -83.3690002 -0.129789E-08  0.918E-05    2.49     140.6  T
   3    -83.3690002 -0.411902E-09  0.392E-05    2.49     329.2  T
     SCC iter.                  ...        0 min,  0.009 sec
     gradient                   ...        0 min,  0.028 sec
 * total energy  :   -82.1189785 Eh     change       -0.1420730E-08 Eh
   gradient norm :     1.6796354 Eh/α   predicted     0.0000000E+00 (-100.00%)
   displ. norm   :     0.3101638 α      lambda       -0.5156459E+00
   maximum displ.:     0.2502267 α      in ANC's #174, #173, #170, ...

........................................................................
.............................. CYCLE    2 ..............................
........................................................................
   1    -83.3707819 -0.833708E+02  0.394E-01    2.66       0.0  T
   2    -83.3710081 -0.226267E-03  0.274E-01    2.68       1.0  T
   3    -83.3701218  0.886322E-03  0.160E-01    2.66       1.0  T
   4    -83.3715260 -0.140416E-02  0.293E-02    2.67       1.0  T
   5    -83.3715729 -0.469690E-04  0.612E-03    2.67       2.1  T
   6    -83.3715734 -0.509657E-06  0.345E-03    2.67       3.7  T
   7    -83.3715736 -0.164387E-06  0.842E-04    2.67      15.3  T
   8    -83.3715736 -0.109060E-08  0.481E-04    2.67      26.8  T
     SCC iter.                  ...        0 min,  0.022 sec
     gradient                   ...        0 min,  0.028 sec
 * total energy  :   -82.2475162 Eh     change       -0.1285376E+00 Eh
   gradient norm :     0.8661739 Eh/α   predicted    -0.2827270E+00 ( 119.96%)
   displ. norm   :     0.1068339 α      lambda       -0.8970323E-01
   maximum displ.:     0.0797032 α      in ANC's #174, #173, #170, ...

........................................................................
.............................. CYCLE    3 ..............................
........................................................................
   1    -83.3719492 -0.833719E+02  0.123E-01    2.62       0.0  T
   2    -83.3720284 -0.792709E-04  0.932E-02    2.61       1.0  T
   3    -83.3720653 -0.368244E-04  0.500E-02    2.62       1.0  T
   4    -83.3721218 -0.565010E-04  0.152E-02    2.62       1.0  T
   5    -83.3721345 -0.127197E-04  0.249E-03    2.61       5.2  T
   6    -83.3721347 -0.179162E-06  0.130E-03    2.61      10.0  T
   7    -83.3721347 -0.169096E-07  0.387E-04    2.61      33.4  T
   8    -83.3721347 -0.117147E-08  0.227E-04    2.61      56.8  T
     SCC iter.                  ...        0 min,  0.022 sec
     gradient                   ...        0 min,  0.028 sec
 * total energy  :   -82.2927917 Eh     change       -0.4527547E-01 Eh
   gradient norm :     0.0461392 Eh/α   predicted    -0.4536491E-01 (   0.20%)
   displ. norm   :     0.0359807 α      lambda       -0.1083474E-02
   maximum displ.:     0.0192103 α      in ANC's #37, #109, #154, ...

........................................................................
.............................. CYCLE    4 ..............................
........................................................................
   1    -83.3725683 -0.833726E+02  0.262E-02    2.61       0.0  T
   2    -83.3725759 -0.757560E-05  0.175E-02    2.62       1.0  T
   3    -83.3725788 -0.295555E-05  0.102E-02    2.62       1.3  T
   4    -83.3725803 -0.151133E-05  0.327E-03    2.62       3.9  T
   5    -83.3725808 -0.465557E-06  0.955E-04    2.62      13.5  T
   6    -83.3725809 -0.459906E-07  0.262E-04    2.62      49.2  T
     SCC iter.                  ...        0 min,  0.017 sec
     gradient                   ...        0 min,  0.028 sec
 * total energy  :   -82.2935037 Eh     change       -0.7120228E-03 Eh
   gradient norm :     0.0304497 Eh/α   predicted    -0.5424951E-03 ( -23.81%)
   displ. norm   :     0.0859060 α      lambda       -0.9242948E-03
   maximum displ.:     0.0603149 α      in ANC's #1, #37, #109, ...

........................................................................
.............................. CYCLE    5 ..............................
........................................................................
   1    -83.3735339 -0.833735E+02  0.551E-02    2.63       0.0  T
   2    -83.3735440 -0.101154E-04  0.344E-02    2.64       1.0  T
   3    -83.3735328  0.112006E-04  0.250E-02    2.64       1.0  T
   4    -83.3735546 -0.218536E-04  0.560E-03    2.64       2.3  T
   5    -83.3735565 -0.183819E-05  0.123E-03    2.64      10.5  T
   6    -83.3735566 -0.735282E-07  0.464E-04    2.64      27.8  T
   7    -83.3735566 -0.186904E-08  0.188E-04    2.64      68.5  T
     SCC iter.                  ...        0 min,  0.019 sec
     gradient                   ...        0 min,  0.028 sec
 * total energy  :   -82.2937978 Eh     change       -0.2941716E-03 Eh
   gradient norm :     0.0134448 Eh/α   predicted    -0.4655984E-03 (  58.27%)
   displ. norm   :     0.3270431 α      lambda       -0.2308301E-02
   maximum displ.:     0.2919231 α      in ANC's #1, #37, #109, ...

........................................................................
.............................. CYCLE    6 ..............................
........................................................................
   1    -83.3711287 -0.833711E+02  0.203E-01    2.64       0.0  T
   2    -83.3711719 -0.431757E-04  0.126E-01    2.65       1.0  T
   3    -83.3709872  0.184727E-03  0.938E-02    2.66       1.0  T
   4    -83.3713170 -0.329868E-03  0.116E-02    2.65       1.1  T
   5    -83.3713247 -0.770655E-05  0.311E-03    2.65       4.2  T
   6    -83.3713251 -0.333084E-06  0.162E-03    2.65       8.0  T
   7    -83.3713251 -0.303380E-07  0.501E-04    2.65      25.8  T
   8    -83.3713251 -0.404727E-08  0.181E-04    2.65      71.3  T
     SCC iter.                  ...        0 min,  0.022 sec
     gradient                   ...        0 min,  0.031 sec
 * total energy  :   -82.2880746 Eh     change        0.5723271E-02 Eh
   gradient norm :     0.1301150 Eh/α   predicted    -0.1277660E-02 (-122.32%)
   displ. norm   :     0.2465229 α      lambda       -0.1249425E-01
   maximum displ.:     0.2179985 α      in ANC's #1, #37, #109, ...

........................................................................
.............................. CYCLE    7 ..............................
........................................................................
   1    -83.3743689 -0.833744E+02  0.158E-01    2.65       0.0  T
   2    -83.3744022 -0.332831E-04  0.995E-02    2.64       1.0  T
   3    -83.3742883  0.113897E-03  0.746E-02    2.63       1.0  T
   4    -83.3744982 -0.209916E-03  0.113E-02    2.64       1.1  T
   5    -83.3745060 -0.776376E-05  0.275E-03    2.64       4.7  T
   6    -83.3745063 -0.305382E-06  0.132E-03    2.64       9.8  T
   7    -83.3745063 -0.160795E-07  0.508E-04    2.64      25.4  T
   8    -83.3745063 -0.438409E-08  0.230E-04    2.64      56.0  T
     SCC iter.                  ...        0 min,  0.022 sec
     gradient                   ...        0 min,  0.028 sec
 * total energy  :   -82.2940890 Eh     change       -0.6014434E-02 Eh
   gradient norm :     0.0157283 Eh/α   predicted    -0.6626555E-02 (  10.18%)
   displ. norm   :     0.0171669 α      lambda       -0.1025620E-03
   maximum displ.:     0.0119802 α      in ANC's #1, #37, #28, ...

........................................................................
.............................. CYCLE    8 ..............................
........................................................................
   1    -83.3746095 -0.833746E+02  0.109E-02    2.64       0.0  T
   2    -83.3746101 -0.548757E-06  0.701E-03    2.64       1.8  T
   3    -83.3746099  0.152638E-06  0.437E-03    2.64       3.0  T
   4    -83.3746105 -0.589563E-06  0.121E-03    2.64      10.7  T
   5    -83.3746106 -0.756122E-07  0.260E-04    2.64      49.6  T
   6    -83.3746106 -0.305354E-08  0.104E-04    2.64     123.6  T
     SCC iter.                  ...        0 min,  0.016 sec
     gradient                   ...        0 min,  0.028 sec
 * total energy  :   -82.2941615 Eh     change       -0.7253378E-04 Eh
   gradient norm :     0.0037760 Eh/α   predicted    -0.5192220E-04 ( -28.42%)
   displ. norm   :     0.0316589 α      lambda       -0.8687261E-04
   maximum displ.:     0.0262146 α      in ANC's #37, #1, #28, ...

........................................................................
.............................. CYCLE    9 ..............................
........................................................................
   1    -83.3748949 -0.833749E+02  0.161E-02    2.64       0.0  T
   2    -83.3748952 -0.283041E-06  0.979E-03    2.64       1.3  T
   3    -83.3748938  0.139925E-05  0.529E-03    2.64       2.4  T
   4    -83.3748954 -0.163974E-05  0.994E-04    2.64      13.0  T
   5    -83.3748955 -0.484020E-07  0.241E-04    2.64      53.5  T
   6    -83.3748955 -0.132511E-08  0.126E-04    2.64     102.4  T
     SCC iter.                  ...        0 min,  0.016 sec
     gradient                   ...        0 min,  0.028 sec
 * total energy  :   -82.2942267 Eh     change       -0.6511568E-04 Eh
   gradient norm :     0.0073677 Eh/α   predicted    -0.4349923E-04 ( -33.20%)
   displ. norm   :     0.0489957 α      lambda       -0.8955290E-04
   maximum displ.:     0.0418166 α      in ANC's #37, #28, #33, ...

........................................................................
.............................. CYCLE   10 ..............................
........................................................................
   1    -83.3752957 -0.833753E+02  0.240E-02    2.64       0.0  T
   2    -83.3752961 -0.310400E-06  0.143E-02    2.64       1.0  T
   3    -83.3752949  0.113032E-05  0.439E-03    2.64       2.9  T
   4    -83.3752962 -0.129641E-05  0.774E-04    2.64      16.7  T
   5    -83.3752962 -0.239756E-07  0.320E-04    2.64      40.3  T
   6    -83.3752963 -0.128883E-08  0.168E-04    2.64      76.7  T
     SCC iter.                  ...        0 min,  0.016 sec
     gradient                   ...        0 min,  0.028 sec
 * total energy  :   -82.2942842 Eh     change       -0.5751266E-04 Eh
   gradient norm :     0.0067737 Eh/α   predicted    -0.4490651E-04 ( -21.92%)
   displ. norm   :     0.0234851 α      lambda       -0.2390082E-04
   maximum displ.:     0.0186135 α      in ANC's #37, #28, #1, ...

........................................................................
.............................. CYCLE   11 ..............................
........................................................................
   1    -83.3755367 -0.833755E+02  0.111E-02    2.64       0.0  T
   2    -83.3755368 -0.314815E-07  0.654E-03    2.64       2.0  T
   3    -83.3755364  0.303481E-06  0.247E-03    2.64       5.2  T
   4    -83.3755368 -0.332427E-06  0.333E-04    2.64      38.8  T
   5    -83.3755368 -0.494161E-08  0.133E-04    2.64      97.3  T
     SCC iter.                  ...        0 min,  0.014 sec
     gradient                   ...        0 min,  0.028 sec
 * total energy  :   -82.2942997 Eh     change       -0.1554595E-04 Eh
   gradient norm :     0.0024689 Eh/α   predicted    -0.1204732E-04 ( -22.51%)
   displ. norm   :     0.0099300 α      lambda       -0.7555731E-05
   maximum displ.:     0.0050319 α      in ANC's #37, #1, #28, ...

........................................................................
.............................. CYCLE   12 ..............................
........................................................................
   1    -83.3757133 -0.833757E+02  0.438E-03    2.64       0.0  T
   2    -83.3757133 -0.181817E-07  0.268E-03    2.64       4.8  T
   3    -83.3757132  0.145633E-06  0.175E-03    2.64       7.4  T
   4    -83.3757133 -0.169847E-06  0.204E-04    2.64      63.2  T
   5    -83.3757134 -0.185524E-08  0.533E-05    2.64     242.2  T
     SCC iter.                  ...        0 min,  0.014 sec
     gradient                   ...        0 min,  0.028 sec
 * total energy  :   -82.2943051 Eh     change       -0.5399229E-05 Eh
   gradient norm :     0.0011449 Eh/α   predicted    -0.3786210E-05 ( -29.87%)
   displ. norm   :     0.0153077 α      lambda       -0.6136818E-05
   maximum displ.:     0.0062283 α      in ANC's #28, #6, #17, ...

........................................................................
.............................. CYCLE   13 ..............................
........................................................................
   1    -83.3760160 -0.833760E+02  0.595E-03    2.64       0.0  T
   2    -83.3760160 -0.516100E-07  0.368E-03    2.64       3.5  T
   3    -83.3760157  0.262005E-06  0.240E-03    2.64       5.4  T
   4    -83.3760161 -0.315731E-06  0.366E-04    2.64      35.3  T
   5    -83.3760161 -0.571379E-08  0.787E-05    2.64     164.0  T
     SCC iter.                  ...        0 min,  0.014 sec
     gradient                   ...        0 min,  0.028 sec
 * total energy  :   -82.2943108 Eh     change       -0.5697535E-05 Eh
   gradient norm :     0.0028574 Eh/α   predicted    -0.3077432E-05 ( -45.99%)
   displ. norm   :     0.0085516 α      lambda       -0.4575015E-05
   maximum displ.:     0.0035330 α      in ANC's #6, #28, #17, ...

........................................................................
.............................. CYCLE   14 ..............................
........................................................................
   1    -83.3761329 -0.833761E+02  0.273E-03    2.64       0.0  T
   2    -83.3761329 -0.538742E-08  0.162E-03    2.64       7.9  T
   3    -83.3761329  0.299642E-07  0.786E-04    2.64      16.4  T
   4    -83.3761329 -0.330440E-07  0.134E-04    2.64      96.1  T
     SCC iter.                  ...        0 min,  0.011 sec
     gradient                   ...        0 min,  0.029 sec
 * total energy  :   -82.2943148 Eh     change       -0.3997088E-05 Eh
   gradient norm :     0.0021965 Eh/α   predicted    -0.2291067E-05 ( -42.68%)
   displ. norm   :     0.0299920 α      lambda       -0.1350688E-04
   maximum displ.:     0.0131800 α      in ANC's #6, #28, #17, ...

........................................................................
.............................. CYCLE   15 ..............................
........................................................................
   1    -83.3764394 -0.833764E+02  0.864E-03    2.64       0.0  T
   2    -83.3764395 -0.382243E-07  0.511E-03    2.64       2.5  T
   3    -83.3764393  0.130857E-06  0.165E-03    2.64       7.8  T
   4    -83.3764395 -0.140252E-06  0.377E-04    2.64      34.2  T
   5    -83.3764395 -0.715458E-08  0.116E-04    2.64     110.9  T
     SCC iter.                  ...        0 min,  0.014 sec
     gradient                   ...        0 min,  0.028 sec
 * total energy  :   -82.2943230 Eh     change       -0.8182230E-05 Eh
   gradient norm :     0.0013096 Eh/α   predicted    -0.6761611E-05 ( -17.36%)
   displ. norm   :     0.0188417 α      lambda       -0.3648647E-05
   maximum displ.:     0.0093193 α      in ANC's #6, #28, #17, ...

........................................................................
.............................. CYCLE   16 ..............................
........................................................................
   1    -83.3765124 -0.833765E+02  0.469E-03    2.64       0.0  T
   2    -83.3765124 -0.115835E-07  0.279E-03    2.64       4.6  T
   3    -83.3765124  0.559588E-07  0.110E-03    2.64      11.7  T
   4    -83.3765125 -0.617261E-07  0.189E-04    2.64      68.1  T
   5    -83.3765125 -0.145859E-08  0.723E-05    2.64     178.6  T
     SCC iter.                  ...        0 min,  0.014 sec
     gradient                   ...        0 min,  0.028 sec
 * total energy  :   -82.2943271 Eh     change       -0.4149621E-05 Eh
   gradient norm :     0.0016280 Eh/α   predicted    -0.1834454E-05 ( -55.79%)
   displ. norm   :     0.0261354 α      lambda       -0.6580827E-05
   maximum displ.:     0.0142402 α      in ANC's #6, #17, #11, ...

........................................................................
.............................. CYCLE   17 ..............................
........................................................................
   1    -83.3764460 -0.833764E+02  0.628E-03    2.63       0.0  T
   2    -83.3764461 -0.335456E-07  0.380E-03    2.63       3.4  T
   3    -83.3764459  0.207966E-06  0.219E-03    2.63       5.9  T
   4    -83.3764461 -0.237033E-06  0.332E-04    2.63      38.9  T
   5    -83.3764461 -0.512362E-08  0.966E-05    2.63     133.6  T
     SCC iter.                  ...        0 min,  0.014 sec
     gradient                   ...        0 min,  0.028 sec
 * total energy  :   -82.2943341 Eh     change       -0.6921828E-05 Eh
   gradient norm :     0.0013371 Eh/α   predicted    -0.3295431E-05 ( -52.39%)
   displ. norm   :     0.0259441 α      lambda       -0.4633421E-05
   maximum displ.:     0.0149438 α      in ANC's #6, #5, #10, ...

........................................................................
.............................. CYCLE   18 ..............................
........................................................................
   1    -83.3763924 -0.833764E+02  0.501E-03    2.63       0.0  T
   2    -83.3763924 -0.129047E-07  0.301E-03    2.63       4.3  T
   3    -83.3763924  0.320850E-07  0.790E-04    2.63      16.3  T
   4    -83.3763924 -0.355233E-07  0.209E-04    2.63      61.7  T
     SCC iter.                  ...        0 min,  0.011 sec
     gradient                   ...        0 min,  0.034 sec
 * total energy  :   -82.2943392 Eh     change       -0.5110483E-05 Eh
   gradient norm :     0.0010985 Eh/α   predicted    -0.2319412E-05 ( -54.61%)
   displ. norm   :     0.0307022 α      lambda       -0.4691252E-05
   maximum displ.:     0.0185502 α      in ANC's #6, #5, #10, ...

........................................................................
.............................. CYCLE   19 ..............................
........................................................................
   1    -83.3763711 -0.833764E+02  0.532E-03    2.63       0.0  T
   2    -83.3763712 -0.112656E-07  0.322E-03    2.63       4.0  T
   3    -83.3763711  0.888163E-07  0.128E-03    2.63      10.1  T
   4    -83.3763712 -0.962909E-07  0.221E-04    2.63      58.4  T
   5    -83.3763712 -0.189425E-08  0.878E-05    2.63     147.1  T
     SCC iter.                  ...        0 min,  0.014 sec
     gradient                   ...        0 min,  0.028 sec
 * total energy  :   -82.2943443 Eh     change       -0.5150561E-05 Eh
   gradient norm :     0.0010128 Eh/α   predicted    -0.2351241E-05 ( -54.35%)
   displ. norm   :     0.0305626 α      lambda       -0.4481707E-05
   maximum displ.:     0.0192090 α      in ANC's #6, #5, #10, ...

........................................................................
.............................. CYCLE   20 ..............................
........................................................................
   1    -83.3764077 -0.833764E+02  0.544E-03    2.63       0.0  T
   2    -83.3764077 -0.117072E-07  0.332E-03    2.63       3.9  T
   3    -83.3764075  0.183842E-06  0.194E-03    2.63       6.7  T
   4    -83.3764077 -0.205405E-06  0.213E-04    2.63      60.7  T
   5    -83.3764077 -0.157004E-08  0.943E-05    2.63     136.9  T
     SCC iter.                  ...        0 min,  0.014 sec
     gradient                   ...        0 min,  0.026 sec
 * total energy  :   -82.2943493 Eh     change       -0.5021261E-05 Eh
   gradient norm :     0.0010828 Eh/α   predicted    -0.2244291E-05 ( -55.30%)
   displ. norm   :     0.0374944 α      lambda       -0.5277181E-05
   maximum displ.:     0.0241124 α      in ANC's #6, #5, #10, ...
 * RMSD in coord.:     0.0548534 α      energy gain  -0.1753708E+00 Eh

generating ANC from model Hessian ...
Using Lindh-Hessian (1995)
 Shifting diagonal of input Hessian by    9.8772052277465560E-003
 Lowest  eigenvalues of input Hessian
    0.000000    0.000000    0.000000    0.000000    0.000000    0.000000
    0.010000    0.010024    0.010118    0.010879    0.011380    0.012017
    0.012507    0.013208    0.013274    0.014825    0.014903    0.015222
 Highest eigenvalues
    1.734064    1.799947    1.881215    1.947848    8.872305    9.359936


........................................................................
.............................. CYCLE   21 ..............................
........................................................................
   1    -83.3765427 -0.833765E+02  0.700E-03    2.63       0.0  T
   2    -83.3765428 -0.166617E-07  0.428E-03    2.63       3.0  T
   3    -83.3765425  0.298388E-06  0.246E-03    2.63       5.3  T
   4    -83.3765428 -0.332047E-06  0.266E-04    2.63      48.6  T
   5    -83.3765428 -0.247617E-08  0.121E-04    2.63     107.1  T
     SCC iter.                  ...        0 min,  0.013 sec
     gradient                   ...        0 min,  0.026 sec
 * total energy  :   -82.2943553 Eh     change       -0.5908144E-05 Eh
   gradient norm :     0.0011757 Eh/α   predicted     0.0000000E+00 (-100.00%)
   displ. norm   :     0.0418001 α      lambda       -0.4287966E-05
   maximum displ.:     0.0166646 α      in ANC's #4, #5, #3, ...

........................................................................
.............................. CYCLE   22 ..............................
........................................................................
   1    -83.3766209 -0.833766E+02  0.101E-02    2.63       0.0  T
   2    -83.3766209 -0.315527E-07  0.602E-03    2.63       2.1  T
   3    -83.3766209  0.876781E-08  0.538E-04    2.63      24.0  T
   4    -83.3766209 -0.145120E-07  0.200E-04    2.63      64.6  T
     SCC iter.                  ...        0 min,  0.011 sec
     gradient                   ...        0 min,  0.026 sec
 * total energy  :   -82.2943718 Eh     change       -0.1653467E-04 Eh
   gradient norm :     0.0008247 Eh/α   predicted    -0.7414736E-05 ( -55.16%)
   displ. norm   :     0.0856647 α      lambda       -0.1598439E-04
   maximum displ.:     0.0401159 α      in ANC's #4, #5, #3, ...

........................................................................
.............................. CYCLE   23 ..............................
........................................................................
   1    -83.3765858 -0.833766E+02  0.136E-02    2.64       0.0  T
   2    -83.3765858 -0.537800E-07  0.811E-03    2.64       1.6  T
   3    -83.3765856  0.229168E-06  0.208E-03    2.64       6.2  T
   4    -83.3765858 -0.247780E-06  0.437E-04    2.64      29.6  T
   5    -83.3765858 -0.787612E-08  0.186E-04    2.64      69.5  T
     SCC iter.                  ...        0 min,  0.013 sec
     gradient                   ...        0 min,  0.026 sec
 * total energy  :   -82.2943878 Eh     change       -0.1602007E-04 Eh
   gradient norm :     0.0018055 Eh/α   predicted    -0.8018586E-05 ( -49.95%)
   displ. norm   :     0.0925637 α      lambda       -0.1126575E-04
   maximum displ.:     0.0451601 α      in ANC's #4, #5, #2, ...

........................................................................
.............................. CYCLE   24 ..............................
........................................................................
   1    -83.3763749 -0.833764E+02  0.114E-02    2.64       0.0  T
   2    -83.3763750 -0.322488E-07  0.676E-03    2.64       1.9  T
   3    -83.3763748  0.116192E-06  0.158E-03    2.64       8.2  T
   4    -83.3763750 -0.130438E-06  0.331E-04    2.64      39.0  T
   5    -83.3763750 -0.291354E-08  0.184E-04    2.64      70.2  T
     SCC iter.                  ...        0 min,  0.013 sec
     gradient                   ...        0 min,  0.026 sec
 * total energy  :   -82.2943999 Eh     change       -0.1207366E-04 Eh
   gradient norm :     0.0038866 Eh/α   predicted    -0.5655807E-05 ( -53.16%)
   displ. norm   :     0.0943017 α      lambda       -0.1612781E-04
   maximum displ.:     0.0457292 α      in ANC's #4, #2, #3, ...

........................................................................
.............................. CYCLE   25 ..............................
........................................................................
   1    -83.3761288 -0.833761E+02  0.110E-02    2.63       0.0  T
   2    -83.3761289 -0.191285E-07  0.662E-03    2.63       2.0  T
   3    -83.3761284  0.419010E-06  0.275E-03    2.63       4.7  T
   4    -83.3761289 -0.459012E-06  0.281E-04    2.63      45.9  T
   5    -83.3761289 -0.647233E-09  0.164E-04    2.63      78.8  T
     SCC iter.                  ...        0 min,  0.013 sec
     gradient                   ...        0 min,  0.026 sec
 * total energy  :   -82.2944138 Eh     change       -0.1390242E-04 Eh
   gradient norm :     0.0012256 Eh/α   predicted    -0.8161908E-05 ( -41.29%)
   displ. norm   :     0.2785690 α      lambda       -0.2927689E-04
   maximum displ.:     0.1345456 α      in ANC's #4, #2, #3, ...

........................................................................
.............................. CYCLE   26 ..............................
........................................................................
   1    -83.3755913 -0.833756E+02  0.328E-02    2.63       0.0  T
   2    -83.3755915 -0.165497E-06  0.197E-02    2.63       1.0  T
   3    -83.3755870  0.449406E-05  0.902E-03    2.63       1.4  T
   4    -83.3755919 -0.491980E-05  0.883E-04    2.63      14.6  T
   5    -83.3755919 -0.953611E-08  0.504E-04    2.63      25.6  T
   6    -83.3755919 -0.117107E-08  0.241E-04    2.63      53.6  T
     SCC iter.                  ...        0 min,  0.015 sec
     gradient                   ...        0 min,  0.026 sec
 * total energy  :   -82.2944435 Eh     change       -0.2974960E-04 Eh
   gradient norm :     0.0016053 Eh/α   predicted    -0.1514463E-04 ( -49.09%)
   displ. norm   :     0.1604059 α      lambda       -0.1270653E-04
   maximum displ.:     0.0757688 α      in ANC's #4, #2, #1, ...

........................................................................
.............................. CYCLE   27 ..............................
........................................................................
   1    -83.3759201 -0.833759E+02  0.185E-02    2.63       0.0  T
   2    -83.3759202 -0.614803E-07  0.111E-02    2.63       1.2  T
   3    -83.3759189  0.127498E-05  0.481E-03    2.63       2.7  T
   4    -83.3759203 -0.139431E-05  0.532E-04    2.63      24.3  T
   5    -83.3759203 -0.462428E-08  0.295E-04    2.63      43.8  T
   6    -83.3759203 -0.473150E-09  0.129E-04    2.63     100.4  T
     SCC iter.                  ...        0 min,  0.015 sec
     gradient                   ...        0 min,  0.026 sec
 * total energy  :   -82.2944573 Eh     change       -0.1373651E-04 Eh
   gradient norm :     0.0020030 Eh/α   predicted    -0.6430681E-05 ( -53.19%)
   displ. norm   :     0.0877154 α      lambda       -0.1027775E-04
   maximum displ.:     0.0442605 α      in ANC's #2, #1, #3, ...

........................................................................
.............................. CYCLE   28 ..............................
........................................................................
   1    -83.3762936 -0.833763E+02  0.100E-02    2.62       0.0  T
   2    -83.3762936 -0.206359E-07  0.603E-03    2.62       2.1  T
   3    -83.3762932  0.392496E-06  0.264E-03    2.62       4.9  T
   4    -83.3762936 -0.427696E-06  0.293E-04    2.62      44.1  T
   5    -83.3762936 -0.157318E-08  0.151E-04    2.62      85.4  T
     SCC iter.                  ...        0 min,  0.013 sec
     gradient                   ...        0 min,  0.026 sec
 * total energy  :   -82.2944649 Eh     change       -0.7581965E-05 Eh
   gradient norm :     0.0022118 Eh/α   predicted    -0.5182952E-05 ( -31.64%)
   displ. norm   :     0.0924406 α      lambda       -0.1021662E-04
   maximum displ.:     0.0490459 α      in ANC's #2, #1, #3, ...

........................................................................
.............................. CYCLE   29 ..............................
........................................................................
   1    -83.3767359 -0.833767E+02  0.105E-02    2.62       0.0  T
   2    -83.3767359 -0.229598E-07  0.629E-03    2.62       2.1  T
   3    -83.3767357  0.246358E-06  0.211E-03    2.62       6.1  T
   4    -83.3767359 -0.267804E-06  0.289E-04    2.62      44.6  T
   5    -83.3767359 -0.175461E-08  0.139E-04    2.62      92.9  T
     SCC iter.                  ...        0 min,  0.013 sec
     gradient                   ...        0 min,  0.026 sec
 * total energy  :   -82.2944727 Eh     change       -0.7839455E-05 Eh
   gradient norm :     0.0005246 Eh/α   predicted    -0.5154610E-05 ( -34.25%)
   displ. norm   :     0.1363286 α      lambda       -0.8239217E-05
   maximum displ.:     0.0751144 α      in ANC's #2, #1, #3, ...

........................................................................
.............................. CYCLE   30 ..............................
........................................................................
   1    -83.3770453 -0.833770E+02  0.145E-02    2.63       0.0  T
   2    -83.3770453 -0.309717E-07  0.864E-03    2.63       1.5  T
   3    -83.3770452  0.130357E-06  0.157E-03    2.63       8.2  T
   4    -83.3770453 -0.146025E-06  0.367E-04    2.63      35.2  T
   5    -83.3770453 -0.310621E-08  0.180E-04    2.63      71.8  T
     SCC iter.                  ...        0 min,  0.013 sec
     gradient                   ...        0 min,  0.026 sec
 * total energy  :   -82.2944824 Eh     change       -0.9681402E-05 Eh
   gradient norm :     0.0008075 Eh/α   predicted    -0.4153875E-05 ( -57.09%)
   displ. norm   :     0.1291318 α      lambda       -0.8873009E-05
   maximum displ.:     0.0730907 α      in ANC's #2, #1, #3, ...

........................................................................
.............................. CYCLE   31 ..............................
........................................................................
   1    -83.3770062 -0.833770E+02  0.128E-02    2.63       0.0  T
   2    -83.3770063 -0.209258E-07  0.763E-03    2.63       1.7  T
   3    -83.3770062  0.506351E-07  0.102E-03    2.63      12.7  T
   4    -83.3770063 -0.584076E-07  0.315E-04    2.63      40.9  T
   5    -83.3770063 -0.282508E-08  0.153E-04    2.63      84.4  T
     SCC iter.                  ...        0 min,  0.013 sec
     gradient                   ...        0 min,  0.026 sec
 * total energy  :   -82.2944945 Eh     change       -0.1217089E-04 Eh
   gradient norm :     0.0009301 Eh/α   predicted    -0.4470045E-05 ( -63.27%)
   displ. norm   :     0.2267619 α      lambda       -0.1711744E-04
   maximum displ.:     0.1289625 α      in ANC's #2, #1, #3, ...

........................................................................
.............................. CYCLE   32 ..............................
........................................................................
   1    -83.3767383 -0.833767E+02  0.219E-02    2.63       0.0  T
   2    -83.3767384 -0.742721E-07  0.130E-02    2.63       1.0  T
   3    -83.3767381  0.304643E-06  0.242E-03    2.63       5.3  T
   4    -83.3767384 -0.336158E-06  0.542E-04    2.63      23.8  T
   5    -83.3767384 -0.890687E-08  0.248E-04    2.63      52.1  T
     SCC iter.                  ...        0 min,  0.013 sec
     gradient                   ...        0 min,  0.026 sec
 * total energy  :   -82.2945166 Eh     change       -0.2204464E-04 Eh
   gradient norm :     0.0006157 Eh/α   predicted    -0.8758140E-05 ( -60.27%)
   displ. norm   :     0.3293206 α      lambda       -0.2033906E-04
   maximum displ.:     0.1887486 α      in ANC's #2, #1, #3, ...

........................................................................
.............................. CYCLE   33 ..............................
........................................................................
   1    -83.3762277 -0.833762E+02  0.320E-02    2.62       0.0  T
   2    -83.3762278 -0.123213E-06  0.190E-02    2.62       1.0  T
   3    -83.3762260  0.183824E-05  0.579E-03    2.62       2.2  T
   4    -83.3762280 -0.199916E-05  0.685E-04    2.62      18.9  T
   5    -83.3762280 -0.854521E-08  0.365E-04    2.62      35.4  T
   6    -83.3762280 -0.187237E-08  0.162E-04    2.62      79.8  T
     SCC iter.                  ...        0 min,  0.015 sec
     gradient                   ...        0 min,  0.026 sec
 * total energy  :   -82.2945400 Eh     change       -0.2345841E-04 Eh
   gradient norm :     0.0014811 Eh/α   predicted    -0.1066271E-04 ( -54.55%)
   displ. norm   :     0.2915564 α      lambda       -0.1278673E-04
   maximum displ.:     0.1690561 α      in ANC's #2, #1, #3, ...

........................................................................
.............................. CYCLE   34 ..............................
........................................................................
   1    -83.3760433 -0.833760E+02  0.290E-02    2.62       0.0  T
   2    -83.3760434 -0.534866E-07  0.172E-02    2.62       1.0  T
   3    -83.3760409  0.252222E-05  0.680E-03    2.62       1.9  T
   4    -83.3760436 -0.273705E-05  0.537E-04    2.62      24.1  T
   5    -83.3760436 -0.288622E-08  0.303E-04    2.62      42.5  T
   6    -83.3760436 -0.966111E-09  0.106E-04    2.62     121.2  T
     SCC iter.                  ...        0 min,  0.015 sec
     gradient                   ...        0 min,  0.026 sec
 * total energy  :   -82.2945538 Eh     change       -0.1371221E-04 Eh
   gradient norm :     0.0013620 Eh/α   predicted    -0.6639099E-05 ( -51.58%)
   displ. norm   :     0.1866112 α      lambda       -0.6590518E-05
   maximum displ.:     0.1102993 α      in ANC's #2, #1, #3, ...

........................................................................
.............................. CYCLE   35 ..............................
........................................................................
   1    -83.3763042 -0.833763E+02  0.193E-02    2.62       0.0  T
   2    -83.3763042 -0.247489E-07  0.115E-02    2.62       1.1  T
   3    -83.3763026  0.163984E-05  0.547E-03    2.62       2.4  T
   4    -83.3763044 -0.178357E-05  0.391E-04    2.62      33.0  T
   5    -83.3763044 -0.239271E-08  0.218E-04    2.62      59.1  T
   6    -83.3763044 -0.360771E-09  0.835E-05    2.62     154.6  T
     SCC iter.                  ...        0 min,  0.015 sec
     gradient                   ...        0 min,  0.026 sec
 * total energy  :   -82.2945606 Eh     change       -0.6838512E-05 Eh
   gradient norm :     0.0006806 Eh/α   predicted    -0.3349649E-05 ( -51.02%)
   displ. norm   :     0.1150580 α      lambda       -0.3394457E-05
   maximum displ.:     0.0698463 α      in ANC's #2, #1, #3, ...

........................................................................
.............................. CYCLE   36 ..............................
........................................................................
   1    -83.3764951 -0.833765E+02  0.125E-02    2.62       0.0  T
   2    -83.3764951 -0.100881E-07  0.745E-03    2.62       1.7  T
   3    -83.3764943  0.817437E-06  0.392E-03    2.62       3.3  T
   4    -83.3764951 -0.893827E-06  0.242E-04    2.62      53.3  T
   5    -83.3764951 -0.589580E-09  0.136E-04    2.62      95.1  T
     SCC iter.                  ...        0 min,  0.013 sec
     gradient                   ...        0 min,  0.026 sec
 * total energy  :   -82.2945642 Eh     change       -0.3644482E-05 Eh
   gradient norm :     0.0004196 Eh/α   predicted    -0.1709227E-05 ( -53.10%)
   displ. norm   :     0.0697706 α      lambda       -0.1984778E-05
   maximum displ.:     0.0438539 α      in ANC's #2, #1, #3, ...

   *** GEOMETRY OPTIMIZATION CONVERGED AFTER 36 ITERATIONS ***

------------------------------------------------------------------------
 total energy gain   :        -0.1755857 Eh     -110.1817 kcal/mol
 total RMSD          :         0.2965543 a0        0.1569 Å
 total power (kW/mol):       -12.8055609 (step) -250.6331 (real)
------------------------------------------------------------------------

 ANCopt (total)                0 d,  0 h,  0 min,  1.839 sec
 optimizer setup                ...        0 min,  0.000 sec (  0.005%)
 model hessian                  ...        0 min,  0.063 sec (  3.422%)
 ANC generation                 ...        0 min,  0.005 sec (  0.288%)
 coordinate transformation      ...        0 min,  0.000 sec (  0.027%)
 single point calculation       ...        0 min,  1.759 sec ( 95.609%)
 optimization log               ...        0 min,  0.007 sec (  0.391%)
 hessian update                 ...        0 min,  0.001 sec (  0.043%)
 rational function              ...        0 min,  0.003 sec (  0.139%)

================
 final structure:
================
60
 xtb: 6.5.0 (homebrew)
C            3.53917688632928      -37.74686764098823       15.85802721362395
C            3.73862206422251      -38.10385055934174       17.32885953756288
O            3.27605408710117      -37.02796671730492       18.14775465246383
C            2.87613029530927      -39.32450970925979       17.67202547872069
C            5.23708470860820      -38.26845792903841       17.77455796774967
C            5.71191572773343      -39.71186413931282       17.92050674116647
C            6.21607645360537      -37.50502483056515       16.87429822373941
O            5.26533737944736      -37.62800662910988       19.05224496470891
B            4.14951091540200      -36.85775802489111       19.18447228085135
C            3.88718809547775      -35.87228319867150       20.38541939339934
C            4.93436713723358      -35.83381152167389       21.38861685223001
C            4.95762855795341      -34.98121661693922       22.45247029146387
H            5.89401238833741      -34.90823082187620       22.99617674033765
C            3.79865931498913      -34.30206095987066       23.09088876832757
H            4.03868213756934      -33.91416888972804       24.07750647308421
C            2.45139255921780      -34.95325088609290       23.12849814229289
B            1.71233388429573      -34.95876882270956       24.49877570920986
O            2.22944359875658      -34.42269392077477       25.64814738733007
C            1.36267050610696      -34.74317852012206       26.73469149818946
C            1.23832408063522      -33.53627258264915       27.66189506738499
C            2.01606182755640      -35.90020423798698       27.50140226461968
C            0.03174554346101      -35.16513709823510       26.01334931470067
C           -0.96275849043466      -34.00508390061074       25.87482038956582
C           -0.68339131392303      -36.36501595692595       26.63015743539615
O            0.46883600672996      -35.49528754415957       24.69604014432203
C            1.88669158542933      -35.52491862808740       22.06115354773879
C            2.41749214669889      -35.61448402820483       20.70204081489660
H            1.75118144948244      -36.11663787718597       20.01166447165177
C            3.24903326495631      -34.54958954925153       20.05393732027277
C            3.77036434122548      -33.37498409582820       20.70935669041043
C            4.19751898501779      -33.36983291411153       22.00595676528971
H            4.76648283785796      -32.50373572104900       22.32809103391992
H            2.47372274926485      -37.67676129614397       15.65357994438195
H            3.96877727626278      -38.51755667788120       15.22401076297439
H            3.99070606349055      -36.78906869272672       15.62073244074391
H            1.83387305747589      -39.07372675073026       17.48838302050781
H            2.98099217732091      -39.57490879534857       18.72469498367631
H            3.14651120828263      -40.18015294964430       17.06082042071861
H            5.61375018489737      -40.23722787764813       16.97443556281367
H            5.14904302880923      -40.23443262843416       18.68692255684075
H            6.75832051799063      -39.70925363478563       18.21501651883787
H            6.28262144978871      -37.96131833189755       15.89132298962684
H            7.19831874772936      -37.52287402561311       17.34070410043469
H            5.90948523815252      -36.46641929532665       16.77877173609049
H            5.86370628905057      -36.29556911796268       21.08534866768862
H            2.20355346567666      -33.34628814775395       28.12493498514421
H            0.50782323694015      -33.73526960985444       28.44138660339382
H            0.94867106745844      -32.64706214029923       27.11153494533200
H            3.00437448418437      -35.58442045177451       27.82790061285223
H            2.13732144667616      -36.76134063776934       26.84900838918916
H            1.42789887653304      -36.17638988956254       28.37144671514892
H           -1.37665780384538      -33.72403782459574       26.83862959387135
H           -1.77142500684190      -34.32133691763610       25.21995679752025
H           -0.47710208798097      -33.14714210567859       25.41667904121079
H           -0.94396845979156      -36.15632317173452       27.66429619692437
H           -0.06614159005435      -37.25619697377017       26.58373386559333
H           -1.59475770963748      -36.55725204473904       26.06946556645216
H            0.91411004970005      -35.97993736258754       22.19620404166548
H            3.02703502752186      -34.39796083500998       19.00142175456643
H            4.12921805255344      -32.59170734053865       20.05462360918226

 Bond Distances (Angstroems)
 ---------------------------
C1-C2=1.5266         C1-H33=1.0872        C1-H34=1.0865        C1-H35=1.0852        C2-C1=1.5266         C2-O3=1.4290         
C2-C4=1.5335         C2-C5=1.5720         O3-C2=1.4290         O3-B9=1.3663         C4-C2=1.5335         C4-H36=1.0876        
C4-H37=1.0871        C4-H38=1.0857        C5-C2=1.5720         C5-C6=1.5265         C5-C7=1.5335         C5-O8=1.4295         
C6-C5=1.5265         C6-H39=1.0866        C6-H40=1.0850        C6-H41=1.0871        C7-C5=1.5335         C7-H42=1.0858        
C7-H43=1.0875        C7-H44=1.0871        O8-C5=1.4295         O8-B9=1.3623         B9-O3=1.3663         B9-O8=1.3623         
B9-C10=1.5755        C10-B9=1.5755        C10-C11=1.4507       C10-C27=1.5254       C10-C29=1.5055       C11-C10=1.4507       
C11-C12=1.3635       C11-H45=1.0811       C12-C11=1.3635       C12-H13=1.0852       C12-C14=1.4873       C12-C31=1.8368       
H13-C12=1.0852       C14-C12=1.4873       C14-H15=1.0870       C14-C16=1.4969       C14-C31=1.4850       H15-C14=1.0870       
C16-C14=1.4969       C16-B17=1.5569       C16-C26=1.3360       B17-C16=1.5569       B17-O18=1.3696       B17-O25=1.3686       
O18-B17=1.3696       O18-C19=1.4264       C19-O18=1.4264       C19-C20=1.5270       C19-C21=1.5341       C19-C22=1.5715       
C20-C19=1.5270       C20-H46=1.0873       C20-H47=1.0867       C20-H48=1.0851       C21-C19=1.5341       C21-H49=1.0877       
C21-H50=1.0871       C21-H51=1.0859       C22-C19=1.5715       C22-C23=1.5343       C22-C24=1.5270       C22-O25=1.4267       
C23-C22=1.5343       C23-H52=1.0859       C23-H53=1.0876       C23-H54=1.0871       C24-C22=1.5270       C24-H55=1.0867       
C24-H56=1.0851       C24-H57=1.0872       O25-B17=1.3686       O25-C22=1.4267       C26-C16=1.3360       C26-C27=1.4618       
C26-H58=1.0822       C27-C10=1.5254       C27-C26=1.4618       C27-H28=1.0829       C27-C29=1.4985       H28-C27=1.0829       
C29-C10=1.5055       C29-C27=1.4985       C29-C30=1.4426       C29-H59=1.0863       C30-C29=1.4426       C30-C31=1.3652       
C30-H60=1.0821       C31-C12=1.8368       C31-C14=1.4850       C31-C30=1.3652       C31-H32=1.0852       H32-C31=1.0852       
H33-C1=1.0872        H34-C1=1.0865        H35-C1=1.0852        H36-C4=1.0876        H37-C4=1.0871        H38-C4=1.0857        
H39-C6=1.0866        H40-C6=1.0850        H41-C6=1.0871        H42-C7=1.0858        H43-C7=1.0875        H44-C7=1.0871        
H45-C11=1.0811       H46-C20=1.0873       H47-C20=1.0867       H48-C20=1.0851       H49-C21=1.0877       H50-C21=1.0871       
H51-C21=1.0859       H52-C23=1.0859       H53-C23=1.0876       H54-C23=1.0871       H55-C24=1.0867       H56-C24=1.0851       
H57-C24=1.0872       H58-C26=1.0822       H59-C29=1.0863       H60-C30=1.0821       
 C  H  Rav=1.0859 sigma=0.0017  Rmin=1.0811  Rmax=1.0877    32
 C  B  Rav=1.5662 sigma=0.0093  Rmin=1.5569  Rmax=1.5755     2
 C  C  Rav=1.5061 sigma=0.0938  Rmin=1.3360  Rmax=1.8368    23
 O  B  Rav=1.3667 sigma=0.0028  Rmin=1.3623  Rmax=1.3696     4
 O  C  Rav=1.4279 sigma=0.0014  Rmin=1.4264  Rmax=1.4295     4

 selected bond angles (degree)
 --------------------
H33-C1-C2=108.92               H34-C1-C2=110.16               H34-C1-H33=108.88              H35-C1-C2=111.27               
H35-C1-H33=108.04              H35-C1-H34=109.51              O3-C2-C1=109.50                C4-C2-C1=109.16                
C4-C2-O3=106.80                C5-C2-C1=114.97                C5-C2-O3=103.00                C5-C2-C4=112.91                
B9-O3-C2=108.76                H36-C4-C2=108.52               H37-C4-C2=110.23               H37-C4-H36=108.00              
H38-C4-C2=111.18               H38-C4-H36=108.98              H38-C4-H37=109.85              C6-C5-C2=115.00                
C7-C5-C2=112.95                C7-C5-C6=109.16                O8-C5-C2=103.02                O8-C5-C6=109.39                
O8-C5-C7=106.80                H39-C6-C5=110.23               H40-C6-C5=111.20               H40-C6-H39=109.59              
H41-C6-C5=108.85               H41-C6-H39=108.91              H41-C6-H40=108.01              H42-C7-C5=111.19               
H43-C7-C5=108.46               H43-C7-H42=109.03              H44-C7-C5=110.31               H44-C7-H42=109.83              
H44-C7-H43=107.94              B9-O8-C5=108.90                O8-B9-O3=112.31                C10-B9-O3=123.36               
C10-B9-O8=124.33               C11-C10-B9=115.06              C27-C10-B9=115.11              C27-C10-C11=123.19             
C29-C10-B9=116.89              C29-C10-C11=115.78             C29-C10-C27= 59.26             

 selected dihedral angles (degree)
 ---------------------------------
O3-C2-C1-H33=294.25           O3-C2-C1-H34=174.90           O3-C2-C1-H35= 53.25           C4-C2-C1-H33= 50.84           
C4-C2-C1-H34=291.49           C4-C2-C1-H35=169.84           C5-C2-C1-H33=178.90           C5-C2-C1-H34= 59.55           
C5-C2-C1-H35=297.90           B9-O3-C2-C1=220.56            B9-O3-C2-C4=102.49            B9-O3-C2-C5=343.34            
H36-C4-C2-C1=299.87           H36-C4-C2-O3= 58.16           H36-C4-C2-C5=170.66           H37-C4-C2-C1=181.78           
H37-C4-C2-O3=300.08           H37-C4-C2-C5= 52.58           H38-C4-C2-C1= 59.72           H38-C4-C2-O3=178.01           
H38-C4-C2-C5=290.51           C6-C5-C2-C1=257.67            C6-C5-C2-O3=138.63            C6-C5-C2-C4= 23.83            
C7-C5-C2-C1= 23.89            C7-C5-C2-O3=264.85            C7-C5-C2-C4=150.04            O8-C5-C2-C1=138.73            
O8-C5-C2-O3= 19.69            O8-C5-C2-C4=264.89            H39-C6-C5-C2= 59.74           H39-C6-C5-C7=291.60           
H39-C6-C5-O8=175.07           H40-C6-C5-C2=297.99           H40-C6-C5-C7=169.85           H40-C6-C5-O8= 53.32           
H41-C6-C5-C2=179.13           H41-C6-C5-C7= 50.99           H41-C6-C5-O8=294.45           H42-C7-C5-C2=290.11           
H42-C7-C5-C6= 59.39           H42-C7-C5-O8=177.56           H43-C7-C5-C2=170.24           H43-C7-C5-C6=299.52           
H43-C7-C5-O8= 57.69           H44-C7-C5-C2= 52.21           H44-C7-C5-C6=181.49           H44-C7-C5-O8=299.66           
B9-O8-C5-C2=343.86            B9-O8-C5-C6=221.09            B9-O8-C5-C7=103.07            O8-B9-O3-C2=  7.48            
C10-B9-O3-C2=187.12           O3-B9-O8-C5=  6.55            C10-B9-O8-C5=186.91           C11-C10-B9-O3=179.96          
C11-C10-B9-O8=359.56          C27-C10-B9-O3= 27.52          C27-C10-B9-O8=207.11          C29-C10-B9-O3=320.80          
C29-C10-B9-O8=140.40          
           -------------------------------------------------
          |                Final Singlepoint                |
           -------------------------------------------------

          ...................................................
          :                      SETUP                      :
          :.................................................:
          :  # basis functions                 144          :
          :  # atomic orbitals                 144          :
          :  # shells                           88          :
          :  # electrons                       150          :
          :  max. iterations                   250          :
          :  Hamiltonian                  GFN2-xTB          :
          :  restarted?                      false          :
          :  GBSA solvation                  false          :
          :  PC potential                    false          :
          :  electronic temp.          300.0000000     K    :
          :  accuracy                    1.0000000          :
          :  -> integral cutoff          0.2500000E+02      :
          :  -> integral neglect         0.1000000E-07      :
          :  -> SCF convergence          0.1000000E-05 Eh   :
          :  -> wf. convergence          0.1000000E-03 e    :
          :  Broyden damping             0.4000000          :
          ...................................................

 iter      E             dE          RMSdq      gap      omega  full diag
   1    -83.3764951 -0.833765E+02  0.607E-05    2.62       0.0  T
   2    -83.3764951 -0.237890E-10  0.423E-05    2.62     304.9  T
   3    -83.3764951 -0.462279E-10  0.269E-05    2.62     479.9  T

   *** convergence criteria satisfied after 3 iterations ***

         #    Occupation            Energy/Eh            Energy/eV
      -------------------------------------------------------------
         1        2.0000           -0.6943645             -18.8946
       ...           ...                  ...                  ...
        69        2.0000           -0.4071938             -11.0803
        70        2.0000           -0.4022822             -10.9467
        71        2.0000           -0.3986546             -10.8479
        72        2.0000           -0.3944316             -10.7330
        73        2.0000           -0.3761266             -10.2349
        74        2.0000           -0.3760166             -10.2319
        75        2.0000           -0.3188638              -8.6767 (HOMO)
        76                         -0.2224612              -6.0535 (LUMO)
        77                         -0.2140482              -5.8245
        78                         -0.1523225              -4.1449
        79                         -0.1121596              -3.0520
        80                         -0.0894353              -2.4337
       ...                                ...                  ...
       144                          0.6960395              18.9402
      -------------------------------------------------------------
                  HL-Gap            0.0964026 Eh            2.6232 eV
             Fermi-level           -0.2706625 Eh           -7.3651 eV

 SCC (total)                   0 d,  0 h,  0 min,  0.040 sec
 SCC setup                      ...        0 min,  0.000 sec (  0.524%)
 Dispersion                     ...        0 min,  0.000 sec (  0.873%)
 classical contributions        ...        0 min,  0.000 sec (  0.405%)
 integral evaluation            ...        0 min,  0.006 sec ( 13.974%)
 iterations                     ...        0 min,  0.008 sec ( 19.250%)
 molecular gradient             ...        0 min,  0.026 sec ( 64.249%)
 printout                       ...        0 min,  0.000 sec (  0.719%)

         :::::::::::::::::::::::::::::::::::::::::::::::::::::
         ::                     SUMMARY                     ::
         :::::::::::::::::::::::::::::::::::::::::::::::::::::
         :: total energy             -82.294564244918 Eh    ::
         :: gradient norm              0.000420056020 Eh/a0 ::
         :: HOMO-LUMO gap              2.623248897794 eV    ::
         ::.................................................::
         :: SCC energy               -83.376495148692 Eh    ::
         :: -> isotropic ES            0.148562987955 Eh    ::
         :: -> anisotropic ES          0.010656915956 Eh    ::
         :: -> anisotropic XC          0.025839412718 Eh    ::
         :: -> dispersion             -0.061120472160 Eh    ::
         :: repulsion energy           1.081003210253 Eh    ::
         :: add. restraining           0.000304604746 Eh    ::
         :: total charge              -0.000000000000 e     ::
         :::::::::::::::::::::::::::::::::::::::::::::::::::::

           -------------------------------------------------
          |                Property Printout                |
           -------------------------------------------------

    * Orbital Energies and Occupations

         #    Occupation            Energy/Eh            Energy/eV
      -------------------------------------------------------------
         1        2.0000           -0.6943645             -18.8946
       ...           ...                  ...                  ...
        63        2.0000           -0.4370097             -11.8916
        64        2.0000           -0.4356861             -11.8556
        65        2.0000           -0.4286926             -11.6653
        66        2.0000           -0.4243597             -11.5474
        67        2.0000           -0.4179446             -11.3729
        68        2.0000           -0.4113435             -11.1932
        69        2.0000           -0.4071938             -11.0803
        70        2.0000           -0.4022822             -10.9467
        71        2.0000           -0.3986546             -10.8479
        72        2.0000           -0.3944316             -10.7330
        73        2.0000           -0.3761266             -10.2349
        74        2.0000           -0.3760166             -10.2319
        75        2.0000           -0.3188638              -8.6767 (HOMO)
        76                         -0.2224612              -6.0535 (LUMO)
        77                         -0.2140482              -5.8245
        78                         -0.1523225              -4.1449
        79                         -0.1121596              -3.0520
        80                         -0.0894353              -2.4337
        81                         -0.0000083              -0.0002
        82                          0.0125072               0.3403
        83                          0.0207161               0.5637
        84                          0.0258153               0.7025
        85                          0.0314763               0.8565
        86                          0.0529454               1.4407
       ...                                ...                  ...
       144                          0.6960395              18.9402
      -------------------------------------------------------------
                  HL-Gap            0.0964026 Eh            2.6232 eV
             Fermi-level           -0.2706625 Eh           -7.3651 eV

     #   Z          covCN         q      C6AA      α(0)
     1   6 C        3.755    -0.118    22.808     6.810
     2   6 C        3.859     0.129    18.446     6.108
     3   8 O        1.638    -0.376    20.390     6.095
     4   6 C        3.755    -0.117    22.792     6.807
     5   6 C        3.860     0.129    18.454     6.109
     6   6 C        3.755    -0.118    22.822     6.812
     7   6 C        3.755    -0.117    22.788     6.807
     8   8 O        1.638    -0.369    20.260     6.076
     9   5 B        2.659     0.442    15.453     6.619
    10   6 C        3.838    -0.051    21.454     6.589
    11   6 C        2.894    -0.068    29.701     8.935
    12   6 C        3.680    -0.008    20.938     6.554
    13   1 H        0.925     0.027     2.631     2.536
    14   6 C        3.866    -0.020    20.884     6.498
    15   1 H        0.925     0.044     2.398     2.422
    16   6 C        2.864    -0.088    30.207     9.009
    17   5 B        2.662     0.431    15.563     6.640
    18   8 O        1.638    -0.374    20.360     6.091
    19   6 C        3.859     0.129    18.451     6.109
    20   6 C        3.755    -0.117    22.792     6.807
    21   6 C        3.755    -0.116    22.771     6.804
    22   6 C        3.860     0.129    18.450     6.109
    23   6 C        3.755    -0.116    22.780     6.805
    24   6 C        3.755    -0.117    22.799     6.808
    25   8 O        1.638    -0.373    20.347     6.089
    26   6 C        2.895    -0.025    28.628     8.773
    27   6 C        3.861    -0.025    20.972     6.513
    28   1 H        0.925     0.038     2.476     2.461
    29   6 C        3.869     0.002    20.505     6.439
    30   6 C        2.890    -0.071    29.765     8.945
    31   6 C        3.682    -0.007    20.905     6.548
    32   1 H        0.925     0.027     2.633     2.537
    33   1 H        0.925     0.056     2.252     2.347
    34   1 H        0.925     0.041     2.435     2.440
    35   1 H        0.925     0.052     2.291     2.367
    36   1 H        0.925     0.053     2.280     2.361
    37   1 H        0.925     0.045     2.388     2.417
    38   1 H        0.925     0.044     2.399     2.422
    39   1 H        0.925     0.041     2.431     2.438
    40   1 H        0.925     0.053     2.277     2.360
    41   1 H        0.925     0.056     2.246     2.344
    42   1 H        0.925     0.044     2.395     2.420
    43   1 H        0.925     0.054     2.273     2.358
    44   1 H        0.925     0.044     2.398     2.422
    45   1 H        0.926     0.029     2.604     2.523
    46   1 H        0.925     0.053     2.277     2.360
    47   1 H        0.925     0.039     2.462     2.454
    48   1 H        0.925     0.052     2.298     2.370
    49   1 H        0.925     0.051     2.303     2.373
    50   1 H        0.925     0.044     2.403     2.424
    51   1 H        0.925     0.042     2.426     2.436
    52   1 H        0.925     0.042     2.423     2.434
    53   1 H        0.925     0.052     2.297     2.370
    54   1 H        0.925     0.044     2.400     2.423
    55   1 H        0.925     0.039     2.459     2.452
    56   1 H        0.925     0.052     2.298     2.371
    57   1 H        0.925     0.054     2.272     2.357
    58   1 H        0.925     0.037     2.484     2.465
    59   1 H        0.925     0.032     2.552     2.498
    60   1 H        0.925     0.017     2.777     2.606

 Mol. C6AA /au·bohr⁶  :      32282.440442
 Mol. C8AA /au·bohr⁸  :     745906.275858
 Mol. α(0) /au        :        268.874376


Wiberg/Mayer (AO) data.
largest (>0.10) Wiberg bond orders for each atom

 ---------------------------------------------------------------------------
     #   Z sym  total        # sym  WBO       # sym  WBO       # sym  WBO
 ---------------------------------------------------------------------------
     1   6 C    3.994 --     2 C    0.997    34 H    0.984    33 H    0.982
                            35 H    0.982
     2   6 C    3.941 --     1 C    0.997     4 C    0.991     3 O    0.949
                             5 C    0.937
     3   8 O    2.230 --     9 B    1.134     2 C    0.949
     4   6 C    3.994 --     2 C    0.991    38 H    0.984    37 H    0.984
                            36 H    0.983
     5   6 C    3.940 --     6 C    0.997     7 C    0.991     8 O    0.948
                             2 C    0.937
     6   6 C    3.994 --     5 C    0.997    39 H    0.984    41 H    0.982
                            40 H    0.982
     7   6 C    3.995 --     5 C    0.991    42 H    0.984    44 H    0.984
                            43 H    0.983
     8   8 O    2.242 --     9 B    1.145     5 C    0.948
     9   5 B    3.374 --     8 O    1.145     3 O    1.134    10 C    0.981
    10   6 C    3.937 --    11 C    1.147     9 B    0.981    27 C    0.851
                            29 C    0.791
    11   6 C    3.978 --    12 C    1.585    10 C    1.147    45 H    0.965
                            30 C    0.171
    12   6 C    3.968 --    11 C    1.585    13 H    0.970    14 C    0.936
                            31 C    0.356
    13   1 H    0.999 --    12 C    0.970
    14   6 C    3.970 --    16 C    0.999    15 H    0.968    31 C    0.943
                            12 C    0.936
    15   1 H    0.998 --    14 C    0.968
    16   6 C    3.977 --    26 C    1.808    17 B    1.007    14 C    0.999
    17   5 B    3.376 --    25 O    1.125    18 O    1.122    16 C    1.007
    18   8 O    2.229 --    17 B    1.122    19 C    0.954
    19   6 C    3.944 --    20 C    0.997    21 C    0.991    18 O    0.954
                            22 C    0.937
    20   6 C    3.994 --    19 C    0.997    47 H    0.985    46 H    0.983
                            48 H    0.982
    21   6 C    3.994 --    19 C    0.991    51 H    0.985    50 H    0.984
                            49 H    0.983
    22   6 C    3.943 --    24 C    0.996    23 C    0.990    25 O    0.954
                            19 C    0.937
    23   6 C    3.995 --    22 C    0.990    52 H    0.985    54 H    0.984
                            53 H    0.983
    24   6 C    3.994 --    22 C    0.996    55 H    0.985    57 H    0.983
                            56 H    0.982
    25   8 O    2.229 --    17 B    1.125    22 C    0.954
    26   6 C    3.989 --    16 C    1.808    27 C    1.068    58 H    0.965
    27   6 C    3.934 --    26 C    1.068    28 H    0.970    29 C    0.901
                            10 C    0.851
    28   1 H    0.998 --    27 C    0.970
    29   6 C    3.954 --    30 C    1.157    59 H    0.968    27 C    0.901
                            10 C    0.791
    30   6 C    3.971 --    31 C    1.573    29 C    1.157    60 H    0.967
                            11 C    0.171
    31   6 C    3.966 --    30 C    1.573    32 H    0.970    14 C    0.943
                            12 C    0.356
    32   1 H    0.999 --    31 C    0.970
    33   1 H    0.997 --     1 C    0.982
    34   1 H    0.998 --     1 C    0.984
    35   1 H    0.997 --     1 C    0.982
    36   1 H    0.997 --     4 C    0.983
    37   1 H    0.998 --     4 C    0.984
    38   1 H    0.998 --     4 C    0.984
    39   1 H    0.998 --     6 C    0.984
    40   1 H    0.997 --     6 C    0.982
    41   1 H    0.997 --     6 C    0.982
    42   1 H    0.998 --     7 C    0.984
    43   1 H    0.997 --     7 C    0.983
    44   1 H    0.998 --     7 C    0.984
    45   1 H    0.999 --    11 C    0.965
    46   1 H    0.997 --    20 C    0.983
    47   1 H    0.998 --    20 C    0.985
    48   1 H    0.997 --    20 C    0.982
    49   1 H    0.997 --    21 C    0.983
    50   1 H    0.998 --    21 C    0.984
    51   1 H    0.998 --    21 C    0.985
    52   1 H    0.998 --    23 C    0.985
    53   1 H    0.997 --    23 C    0.983
    54   1 H    0.998 --    23 C    0.984
    55   1 H    0.998 --    24 C    0.985
    56   1 H    0.997 --    24 C    0.982
    57   1 H    0.997 --    24 C    0.983
    58   1 H    0.998 --    26 C    0.965
    59   1 H    0.998 --    29 C    0.968
    60   1 H    0.999 --    30 C    0.967
 ---------------------------------------------------------------------------

Topologies differ in total number of bonds
Writing topology from bond orders to xtbtopo.mol

molecular dipole:
                 x           y           z       tot (Debye)
 q only:       -0.160      -0.585      -0.157
   full:       -0.073      -0.638      -0.200       1.709
molecular quadrupole (traceless):
                xx          xy          yy          xz          yz          zz
 q only:      -44.666       7.994      79.470     -24.024      -8.778     -34.803
  q+dip:      -45.784       1.244      84.702     -19.228      -5.587     -38.918
   full:      -46.346       0.143      86.425     -20.346      -6.829     -40.079

           -------------------------------------------------
          |                Geometry Summary                 |
           -------------------------------------------------

      molecular mass/u    :      382.1099696
   center of mass at/Å    :        2.9435877     -35.9380214      21.8299207
  moments of inertia/u·Å² :        0.1167935E+04   0.6847182E+04   0.7156139E+04
rotational constants/cm⁻¹ :        0.1443370E-01   0.2461981E-02   0.2355688E-02

 * 61 selected distances

     #   Z          #   Z                                           value/Å
     1   6 C        2   6 C                                       1.5266183
     2   6 C        3   8 O                                       1.4290153
     2   6 C        4   6 C                                       1.5335136
     5   6 C        6   6 C                                       1.5264952
     5   6 C        7   6 C                                       1.5335328
     5   6 C        8   8 O                                       1.4294966
     3   8 O        9   5 B                                       1.3662656
     8   8 O        9   5 B                                       1.3622907
     9   5 B       10   6 C                                       1.5755153 (max)
    10   6 C       11   6 C                                       1.4506790
    11   6 C       12   6 C                                       1.3635409
    12   6 C       13   1 H                                       1.0852458
    12   6 C       14   6 C                                       1.4872931
    14   6 C       15   1 H                                       1.0869618
    16   6 C       17   5 B                                       1.5568877
    17   5 B       18   8 O                                       1.3696110
    18   8 O       19   6 C                                       1.4263886
    19   6 C       20   6 C                                       1.5270203
    19   6 C       21   6 C                                       1.5341038
    22   6 C       23   6 C                                       1.5342596
    22   6 C       24   6 C                                       1.5269521
    17   5 B       25   8 O                                       1.3685952
    22   6 C       25   8 O                                       1.4266574
    16   6 C       26   6 C                                       1.3360075
    10   6 C       27   6 C                                       1.5253577
    26   6 C       27   6 C                                       1.4618341
    27   6 C       28   1 H                                       1.0829350
    10   6 C       29   6 C                                       1.5055367
    27   6 C       29   6 C                                       1.4984991
    29   6 C       30   6 C                                       1.4425876
    14   6 C       31   6 C                                       1.4849970
    30   6 C       31   6 C                                       1.3651592
    31   6 C       32   1 H                                       1.0851797
     1   6 C       33   1 H                                       1.0871552
     1   6 C       34   1 H                                       1.0865059
     1   6 C       35   1 H                                       1.0851573
     4   6 C       36   1 H                                       1.0876199
     4   6 C       37   1 H                                       1.0871104
     4   6 C       38   1 H                                       1.0857270
     6   6 C       39   1 H                                       1.0865976
     6   6 C       40   1 H                                       1.0850331
     6   6 C       41   1 H                                       1.0870630
     7   6 C       42   1 H                                       1.0857590
     7   6 C       43   1 H                                       1.0874986
     7   6 C       44   1 H                                       1.0871178
    11   6 C       45   1 H                                       1.0811397 (min)
    20   6 C       46   1 H                                       1.0872755
    20   6 C       47   1 H                                       1.0866640
    20   6 C       48   1 H                                       1.0851224
    21   6 C       49   1 H                                       1.0876961
    21   6 C       50   1 H                                       1.0871420
    21   6 C       51   1 H                                       1.0859060
    23   6 C       52   1 H                                       1.0859226
    23   6 C       53   1 H                                       1.0875680
    23   6 C       54   1 H                                       1.0871154
    24   6 C       55   1 H                                       1.0866905
    24   6 C       56   1 H                                       1.0850605
    24   6 C       57   1 H                                       1.0871610
    26   6 C       58   1 H                                       1.0822180
    29   6 C       59   1 H                                       1.0863074
    30   6 C       60   1 H                                       1.0821156

 * 5 distinct bonds (by element types)

   Z      Z             #   av. dist./Å        max./Å        min./Å
   1 H    6 C          32     1.0859304     1.0876961     1.0811397
   5 B    6 C           2     1.5662015     1.5755153     1.5568877
   6 C    6 C          19     1.4823151     1.5342596     1.3360075
   5 B    8 O           4     1.3666906     1.3696110     1.3622907
   6 C    8 O           4     1.4278895     1.4294966     1.4263886


optimized geometry written to: xtbopt.xyz


           -------------------------------------------------
          | TOTAL ENERGY              -82.294564244918 Eh   |
          | GRADIENT NORM               0.000420056020 Eh/α |
          | HOMO-LUMO GAP               2.623248897794 eV   |
           -------------------------------------------------

------------------------------------------------------------------------
 * finished run on 2022/07/09 at 18:33:35.566     
------------------------------------------------------------------------
 total:
 * wall-time:     0 d,  0 h,  0 min,  1.960 sec
 *  cpu-time:     0 d,  0 h,  0 min,  1.957 sec
 * ratio c/w:     0.999 speedup
 SCF:
 * wall-time:     0 d,  0 h,  0 min,  0.068 sec
 *  cpu-time:     0 d,  0 h,  0 min,  0.068 sec
 * ratio c/w:     0.999 speedup
 ANC optimizer:
 * wall-time:     0 d,  0 h,  0 min,  1.881 sec
 *  cpu-time:     0 d,  0 h,  0 min,  1.878 sec
 * ratio c/w:     0.999 speedup

