      -----------------------------------------------------------      
     |                   =====================                   |     
     |                           x T B                           |     
     |                   =====================                   |     
     |                         S. Grimme                         |     
     |          Mulliken Center for Theoretical Chemistry        |     
     |                    University of Bonn                     |     
      -----------------------------------------------------------      

   * xtb version 6.5.0 (homebrew) compiled by 'nhattrup@GPGGRP-SHANNON.CHEME.CMU.EDU' on 

   xtb is free software: you can redistribute it and/or modify it under
   the terms of the GNU Lesser General Public License as published by
   the Free Software Foundation, either version 3 of the License, or
   (at your option) any later version.
   
   xtb is distributed in the hope that it will be useful,
   but WITHOUT ANY WARRANTY; without even the implied warranty of
   MERCHANTABILITY or FITNESS FOR A PARTICULAR PURPOSE.  See the
   GNU Lesser General Public License for more details.
   
   Cite this work as:
   * C. Bannwarth, E. Caldeweyher, S. Ehlert, A. Hansen, P. Pracht,
     J. Seibert, S. Spicher, S. Grimme, WIREs Comput. Mol. Sci., 2020, 11,
     e01493. DOI: 10.1002/wcms.1493
   
   for GFN2-xTB:
   * C. Bannwarth, S. Ehlert and S. Grimme., J. Chem. Theory Comput., 2019,
     15, 1652-1671. DOI: 10.1021/acs.jctc.8b01176
   for GFN1-xTB:
   * S. Grimme, C. Bannwarth, P. Shushkov, J. Chem. Theory Comput., 2017,
     13, 1989-2009. DOI: 10.1021/acs.jctc.7b00118
   for GFN0-xTB:
   * P. Pracht, E. Caldeweyher, S. Ehlert, S. Grimme, ChemRxiv, 2019, preprint.
     DOI: 10.26434/chemrxiv.8326202.v1
   for GFN-FF:
   * S. Spicher and S. Grimme, Angew. Chem. Int. Ed., 2020, 59, 15665-15673.
     DOI: 10.1002/anie.202004239
   
   for ALPB and GBSA implicit solvation:
   * S. Ehlert, M. Stahn, S. Spicher, S. Grimme, J. Chem. Theory Comput.,
     2021, 17, 4250-4261. DOI: 10.1021/acs.jctc.1c00471
   
   for DFT-D4:
   * E. Caldeweyher, C. Bannwarth and S. Grimme, J. Chem. Phys., 2017,
     147, 034112. DOI: 10.1063/1.4993215
   * E. Caldeweyher, S. Ehlert, A. Hansen, H. Neugebauer, S. Spicher,
     C. Bannwarth and S. Grimme, J. Chem. Phys., 2019, 150, 154122.
     DOI: 10.1063/1.5090222
   * E. Caldeweyher, J.-M. Mewes, S. Ehlert and S. Grimme, Phys. Chem. Chem. Phys.
     2020, 22, 8499-8512. DOI: 10.1039/D0CP00502A
   
   for sTDA-xTB:
   * S. Grimme and C. Bannwarth, J. Chem. Phys., 2016, 145, 054103.
     DOI: 10.1063/1.4959605
   
   in the mass-spec context:
   * V. Asgeirsson, C. Bauer and S. Grimme, Chem. Sci., 2017, 8, 4879.
     DOI: 10.1039/c7sc00601b
   * J. Koopman and S. Grimme, ACS Omega 2019, 4, 12, 15120-15133.
     DOI: 10.1021/acsomega.9b02011
   
   for metadynamics refer to:
   * S. Grimme, J. Chem. Theory Comput., 2019, 155, 2847-2862
     DOI: 10.1021/acs.jctc.9b00143
   
   for SPH calculations refer to:
   * S. Spicher and S. Grimme, J. Chem. Theory Comput., 2021, 17, 1701-1714
     DOI: 10.1021/acs.jctc.0c01306
   
   with help from (in alphabetical order)
   P. Atkinson, C. Bannwarth, F. Bohle, G. Brandenburg, E. Caldeweyher
   M. Checinski, S. Dohm, S. Ehlert, S. Ehrlich, I. Gerasimov, C. Hölzer
   A. Katbashev, J. Koopman, C. Lavigne, S. Lehtola, F. März, M. Müller,
   F. Musil, H. Neugebauer, J. Pisarek, C. Plett, P. Pracht, F. Pultar,
   J. Seibert, P. Shushkov, S. Spicher, M. Stahn, M. Steiner, T. Strunk,
   J. Stückrath, T. Rose, and J. Unsleber
   
 * started run on 2022/07/09 at 18:32:59.388     

           -------------------------------------------------
          |                Calculation Setup                |
           -------------------------------------------------

          program call               : /opt/homebrew/bin/xtb bvl_bpin2_scan_1-3_xtb.xyz --chrg 0 --uhf 0 --opt --input xcontrol_bvl_bpin2_scan_1-3_xtb
          coordinate file            : bvl_bpin2_scan_1-3_xtb.xyz
          omp threads                :                     1

   ID    Z sym.   atoms
    1    6 C      1, 2, 4-7, 10-12, 14, 16, 19-24, 26, 27, 29-31
    2    8 O      3, 8, 18, 25
    3    5 B      9, 17
    4    1 H      13, 15, 28, 32-60
constraining bond 12 31 to    1.6111000 Å, actual value:    1.5022288 Å
constraining bond 10 29 to    2.1667000 Å, actual value:    2.2802354 Å

           -------------------------------------------------
          |                 G F N 2 - x T B                 |
           -------------------------------------------------

        Reference                      10.1021/acs.jctc.8b01176
      * Hamiltonian:
        H0-scaling (s, p, d)           1.850000    2.230000    2.230000
        zeta-weighting                 0.500000
      * Dispersion:
        s8                             2.700000
        a1                             0.520000
        a2                             5.000000
        s9                             5.000000
      * Repulsion:
        kExp                           1.500000    1.000000
        rExp                           1.000000
      * Coulomb:
        alpha                          2.000000
        third order                    shell-resolved
        anisotropic                    true
        a3                             3.000000
        a5                             4.000000
        cn-shift                       1.200000
        cn-exp                         4.000000
        max-rad                        5.000000


          ...................................................
          :                      SETUP                      :
          :.................................................:
          :  # basis functions                 144          :
          :  # atomic orbitals                 144          :
          :  # shells                           88          :
          :  # electrons                       150          :
          :  max. iterations                   250          :
          :  Hamiltonian                  GFN2-xTB          :
          :  restarted?                      false          :
          :  GBSA solvation                  false          :
          :  PC potential                    false          :
          :  electronic temp.          300.0000000     K    :
          :  accuracy                    1.0000000          :
          :  -> integral cutoff          0.2500000E+02      :
          :  -> integral neglect         0.1000000E-07      :
          :  -> SCF convergence          0.1000000E-05 Eh   :
          :  -> wf. convergence          0.1000000E-03 e    :
          :  Broyden damping             0.4000000          :
          ...................................................

 iter      E             dE          RMSdq      gap      omega  full diag
   1    -82.9791169 -0.829791E+02  0.467E+00    3.54       0.0  T
   2    -83.3600511 -0.380934E+00  0.287E+00    3.09       1.0  T
   3    -83.3720872 -0.120361E-01  0.136E+00    3.45       1.0  T
   4    -83.3935179 -0.214308E-01  0.433E-01    3.30       1.0  T
   5    -83.4049309 -0.114130E-01  0.185E-01    3.35       1.0  T
   6    -83.4056784 -0.747522E-03  0.117E-01    3.37       1.0  T
   7    -83.4060006 -0.322236E-03  0.288E-02    3.35       1.0  T
   8    -83.4060232 -0.225771E-04  0.954E-03    3.36       1.4  T
   9    -83.4060246 -0.135002E-05  0.509E-03    3.36       2.5  T
  10    -83.4060251 -0.501095E-06  0.254E-03    3.35       5.1  T
  11    -83.4060252 -0.175325E-06  0.552E-04    3.36      23.4  T
  12    -83.4060252 -0.978794E-08  0.233E-04    3.36      55.4  T

   *** convergence criteria satisfied after 12 iterations ***

         #    Occupation            Energy/Eh            Energy/eV
      -------------------------------------------------------------
         1        2.0000           -0.6876895             -18.7130
       ...           ...                  ...                  ...
        69        2.0000           -0.4061343             -11.0515
        70        2.0000           -0.3982612             -10.8372
        71        2.0000           -0.3966543             -10.7935
        72        2.0000           -0.3964206             -10.7872
        73        2.0000           -0.3860191             -10.5041
        74        2.0000           -0.3577453              -9.7347
        75        2.0000           -0.3450730              -9.3899 (HOMO)
        76                         -0.2217729              -6.0347 (LUMO)
        77                         -0.2129278              -5.7941
        78                         -0.1878552              -5.1118
        79                         -0.1017736              -2.7694
        80                         -0.0928848              -2.5275
       ...                                ...                  ...
       144                          0.6836652              18.6035
      -------------------------------------------------------------
                  HL-Gap            0.1233001 Eh            3.3552 eV
             Fermi-level           -0.2834229 Eh           -7.7123 eV

 SCC (total)                   0 d,  0 h,  0 min,  0.069 sec
 SCC setup                      ...        0 min,  0.000 sec (  0.420%)
 Dispersion                     ...        0 min,  0.000 sec (  0.654%)
 classical contributions        ...        0 min,  0.000 sec (  0.270%)
 integral evaluation            ...        0 min,  0.006 sec (  9.091%)
 iterations                     ...        0 min,  0.033 sec ( 48.272%)
 molecular gradient             ...        0 min,  0.028 sec ( 40.751%)
 printout                       ...        0 min,  0.000 sec (  0.531%)

         :::::::::::::::::::::::::::::::::::::::::::::::::::::
         ::                     SUMMARY                     ::
         :::::::::::::::::::::::::::::::::::::::::::::::::::::
         :: total energy             -82.141934192645 Eh    ::
         :: gradient norm              1.679454252068 Eh/a0 ::
         :: HOMO-LUMO gap              3.355167294996 eV    ::
         ::.................................................::
         :: SCC energy               -83.406025243541 Eh    ::
         :: -> isotropic ES            0.147088706653 Eh    ::
         :: -> anisotropic ES          0.012196582876 Eh    ::
         :: -> anisotropic XC          0.026642065212 Eh    ::
         :: -> dispersion             -0.061401104460 Eh    ::
         :: repulsion energy           1.086610112932 Eh    ::
         :: add. restraining           0.176719160643 Eh    ::
         :: total charge              -0.000000000000 e     ::
         :::::::::::::::::::::::::::::::::::::::::::::::::::::

      ----------------------------------------------------------- 
     |                   =====================                   |
     |                        A N C O P T                        |
     |                   =====================                   |
     |               Approximate Normal Coordinate               |
     |                Rational Function Optimizer                |
      ----------------------------------------------------------- 

          ...................................................
          :                      SETUP                      :
          :.................................................:
          :   optimization level            normal          :
          :   max. optcycles                   200          :
          :   ANC micro-cycles                  20          :
          :   degrees of freedom               174          :
          :.................................................:
          :   RF solver                   davidson          :
          :   write xtbopt.log                true          :
          :   linear?                        false          :
          :   energy convergence         0.5000000E-05 Eh   :
          :   grad. convergence          0.1000000E-02 Eh/α :
          :   maximium RF displ.         1.0000000          :
          :   Hlow (freq-cutoff)         0.1000000E-01      :
          :   Hmax (freq-cutoff)         5.0000000          :
          :   S6 in model hess.         20.0000000          :
          ...................................................

generating ANC from model Hessian ...
Using Lindh-Hessian (1995)
 Shifting diagonal of input Hessian by   0.19607657795845687     
 Lowest  eigenvalues of input Hessian
    0.010000    0.127245    0.000000    0.000000    0.000000    0.000000
    0.000000    0.000000    0.196170    0.196215    0.196336    0.197699
    0.197960    0.198646    0.199363    0.199417    0.200911    0.201264
 Highest eigenvalues
    1.912478    2.081071    2.096863    2.274112    8.918209    9.583447


........................................................................
.............................. CYCLE    1 ..............................
........................................................................
   1    -83.4060252 -0.834060E+02  0.971E-05    3.36       0.0  T
   2    -83.4060252 -0.537767E-09  0.585E-05    3.36     220.5  T
   3    -83.4060252 -0.199478E-09  0.214E-05    3.36     604.6  T
     SCC iter.                  ...        0 min,  0.009 sec
     gradient                   ...        0 min,  0.028 sec
 * total energy  :   -82.1419342 Eh     change       -0.1637744E-08 Eh
   gradient norm :     1.6794540 Eh/α   predicted     0.0000000E+00 (-100.00%)
   displ. norm   :     0.3110619 α      lambda       -0.5159401E+00
   maximum displ.:     0.2236992 α      in ANC's #174, #173, #127, ...

........................................................................
.............................. CYCLE    2 ..............................
........................................................................
   1    -83.3835238 -0.833835E+02  0.315E-01    3.24       0.0  T
   2    -83.3834428  0.809700E-04  0.235E-01    3.23       1.0  T
   3    -83.3838106 -0.367794E-03  0.147E-01    3.24       1.0  T
   4    -83.3844750 -0.664373E-03  0.289E-02    3.23       1.0  T
   5    -83.3845208 -0.457631E-04  0.645E-03    3.23       2.0  T
   6    -83.3845221 -0.131297E-05  0.302E-03    3.23       4.3  T
   7    -83.3845221 -0.515567E-07  0.871E-04    3.23      14.8  T
   8    -83.3845222 -0.237272E-07  0.282E-04    3.23      45.8  T
     SCC iter.                  ...        0 min,  0.022 sec
     gradient                   ...        0 min,  0.028 sec
 * total energy  :   -82.2625556 Eh     change       -0.1206214E+00 Eh
   gradient norm :     0.8961689 Eh/α   predicted    -0.2829666E+00 ( 134.59%)
   displ. norm   :     0.1104422 α      lambda       -0.9470051E-01
   maximum displ.:     0.0763243 α      in ANC's #174, #173, #28, ...

........................................................................
.............................. CYCLE    3 ..............................
........................................................................
   1    -83.3936633 -0.833937E+02  0.117E-01    3.28       0.0  T
   2    -83.3936537  0.964576E-05  0.932E-02    3.28       1.0  T
   3    -83.3938009 -0.147193E-03  0.535E-02    3.28       1.0  T
   4    -83.3938516 -0.507243E-04  0.124E-02    3.28       1.0  T
   5    -83.3938591 -0.743862E-05  0.330E-03    3.28       3.9  T
   6    -83.3938595 -0.480092E-06  0.125E-03    3.28      10.3  T
   7    -83.3938595 -0.972366E-08  0.370E-04    3.28      34.8  T
   8    -83.3938595 -0.519582E-08  0.123E-04    3.28     105.1  T
     SCC iter.                  ...        0 min,  0.022 sec
     gradient                   ...        0 min,  0.027 sec
 * total energy  :   -82.3113894 Eh     change       -0.4883380E-01 Eh
   gradient norm :     0.0324445 Eh/α   predicted    -0.4792793E-01 (  -1.86%)
   displ. norm   :     0.0424543 α      lambda       -0.8624528E-03
   maximum displ.:     0.0172652 α      in ANC's #28, #42, #109, ...

........................................................................
.............................. CYCLE    4 ..............................
........................................................................
   1    -83.3943079 -0.833943E+02  0.280E-02    3.28       0.0  T
   2    -83.3943101 -0.222537E-05  0.174E-02    3.28       1.0  T
   3    -83.3943044  0.569708E-05  0.126E-02    3.28       1.0  T
   4    -83.3943121 -0.767046E-05  0.265E-03    3.28       4.9  T
   5    -83.3943124 -0.351074E-06  0.720E-04    3.28      17.9  T
   6    -83.3943124 -0.201306E-07  0.322E-04    3.28      40.1  T
     SCC iter.                  ...        0 min,  0.016 sec
     gradient                   ...        0 min,  0.028 sec
 * total energy  :   -82.3120707 Eh     change       -0.6812528E-03 Eh
   gradient norm :     0.0151673 Eh/α   predicted    -0.4320907E-03 ( -36.57%)
   displ. norm   :     0.1877095 α      lambda       -0.1341174E-02
   maximum displ.:     0.1537673 α      in ANC's #1, #28, #42, ...

........................................................................
.............................. CYCLE    5 ..............................
........................................................................
   1    -83.3924984 -0.833925E+02  0.123E-01    3.28       0.0  T
   2    -83.3925257 -0.272872E-04  0.716E-02    3.28       1.0  T
   3    -83.3924842  0.414338E-04  0.348E-02    3.28       1.0  T
   4    -83.3925320 -0.477475E-04  0.993E-03    3.28       1.3  T
   5    -83.3925382 -0.624661E-05  0.135E-03    3.28       9.6  T
   6    -83.3925383 -0.521506E-07  0.757E-04    3.28      17.1  T
   7    -83.3925383 -0.656077E-08  0.332E-04    3.28      38.9  T
     SCC iter.                  ...        0 min,  0.019 sec
     gradient                   ...        0 min,  0.027 sec
 * total energy  :   -82.3112495 Eh     change        0.8211436E-03 Eh
   gradient norm :     0.0384449 Eh/α   predicted    -0.6944546E-03 (-184.57%)
   displ. norm   :     0.2685669 α      lambda       -0.4578826E-02
   maximum displ.:     0.2184131 α      in ANC's #1, #28, #42, ...

........................................................................
.............................. CYCLE    6 ..............................
........................................................................
   1    -83.3933279 -0.833933E+02  0.167E-01    3.27       0.0  T
   2    -83.3933943 -0.663984E-04  0.959E-02    3.27       1.0  T
   3    -83.3933392  0.550093E-04  0.487E-02    3.27       1.0  T
   4    -83.3934102 -0.709787E-04  0.125E-02    3.27       1.0  T
   5    -83.3934203 -0.100433E-04  0.221E-03    3.27       5.9  T
   6    -83.3934204 -0.147864E-06  0.129E-03    3.27      10.0  T
   7    -83.3934204 -0.309220E-07  0.568E-04    3.27      22.7  T
   8    -83.3934205 -0.960127E-08  0.111E-04    3.27     115.8  T
     SCC iter.                  ...        0 min,  0.022 sec
     gradient                   ...        0 min,  0.028 sec
 * total energy  :   -82.3114754 Eh     change       -0.2258841E-03 Eh
   gradient norm :     0.0446924 Eh/α   predicted    -0.2454598E-02 ( 986.66%)
   displ. norm   :     0.1544203 α      lambda       -0.3193627E-02
   maximum displ.:     0.0623449 α      in ANC's #28, #42, #1, ...

........................................................................
.............................. CYCLE    7 ..............................
........................................................................
   1    -83.3950506 -0.833951E+02  0.100E-01    3.28       0.0  T
   2    -83.3950808 -0.302501E-04  0.604E-02    3.28       1.0  T
   3    -83.3950204  0.604212E-04  0.395E-02    3.28       1.0  T
   4    -83.3950937 -0.733291E-04  0.101E-02    3.27       1.3  T
   5    -83.3950995 -0.580248E-05  0.219E-03    3.28       5.9  T
   6    -83.3950997 -0.176252E-06  0.105E-03    3.28      12.3  T
   7    -83.3950997 -0.177950E-07  0.375E-04    3.28      34.4  T
   8    -83.3950997 -0.392238E-08  0.980E-05    3.28     131.7  T
     SCC iter.                  ...        0 min,  0.022 sec
     gradient                   ...        0 min,  0.027 sec
 * total energy  :   -82.3128538 Eh     change       -0.1378421E-02 Eh
   gradient norm :     0.0129394 Eh/α   predicted    -0.1635035E-02 (  18.62%)
   displ. norm   :     0.0587072 α      lambda       -0.3261558E-03
   maximum displ.:     0.0298227 α      in ANC's #28, #1, #42, ...

........................................................................
.............................. CYCLE    8 ..............................
........................................................................
   1    -83.3953430 -0.833953E+02  0.337E-02    3.28       0.0  T
   2    -83.3953444 -0.139796E-05  0.199E-02    3.27       1.0  T
   3    -83.3953406  0.382148E-05  0.867E-03    3.28       1.5  T
   4    -83.3953447 -0.413568E-05  0.239E-03    3.28       5.4  T
   5    -83.3953451 -0.349797E-06  0.391E-04    3.28      33.0  T
   6    -83.3953451 -0.334271E-08  0.236E-04    3.28      54.7  T
     SCC iter.                  ...        0 min,  0.017 sec
     gradient                   ...        0 min,  0.027 sec
 * total energy  :   -82.3130612 Eh     change       -0.2073590E-03 Eh
   gradient norm :     0.0107382 Eh/α   predicted    -0.1637126E-03 ( -21.05%)
   displ. norm   :     0.0555223 α      lambda       -0.1824925E-03
   maximum displ.:     0.0358188 α      in ANC's #28, #36, #37, ...

........................................................................
.............................. CYCLE    9 ..............................
........................................................................
   1    -83.3956314 -0.833956E+02  0.270E-02    3.27       0.0  T
   2    -83.3956316 -0.215480E-06  0.160E-02    3.27       1.0  T
   3    -83.3956313  0.300712E-06  0.253E-03    3.27       5.1  T
   4    -83.3956317 -0.346507E-06  0.646E-04    3.27      20.0  T
   5    -83.3956317 -0.164887E-07  0.271E-04    3.27      47.6  T
     SCC iter.                  ...        0 min,  0.014 sec
     gradient                   ...        0 min,  0.028 sec
 * total energy  :   -82.3132100 Eh     change       -0.1487887E-03 Eh
   gradient norm :     0.0091758 Eh/α   predicted    -0.9158704E-04 ( -38.44%)
   displ. norm   :     0.1347341 α      lambda       -0.3827078E-03
   maximum displ.:     0.0903048 α      in ANC's #28, #36, #37, ...

........................................................................
.............................. CYCLE   10 ..............................
........................................................................
   1    -83.3962152 -0.833962E+02  0.634E-02    3.27       0.0  T
   2    -83.3962162 -0.997516E-06  0.376E-02    3.27       1.0  T
   3    -83.3962119  0.433482E-05  0.952E-03    3.27       1.4  T
   4    -83.3962167 -0.480637E-05  0.147E-03    3.27       8.8  T
   5    -83.3962168 -0.902840E-07  0.806E-04    3.27      16.0  T
   6    -83.3962168 -0.132216E-07  0.439E-04    3.27      29.4  T
     SCC iter.                  ...        0 min,  0.017 sec
     gradient                   ...        0 min,  0.028 sec
 * total energy  :   -82.3134505 Eh     change       -0.2405513E-03 Eh
   gradient norm :     0.0093248 Eh/α   predicted    -0.1948411E-03 ( -19.00%)
   displ. norm   :     0.0605405 α      lambda       -0.1250459E-03
   maximum displ.:     0.0415766 α      in ANC's #28, #8, #32, ...

........................................................................
.............................. CYCLE   11 ..............................
........................................................................
   1    -83.3967915 -0.833968E+02  0.291E-02    3.27       0.0  T
   2    -83.3967919 -0.401379E-06  0.172E-02    3.27       1.0  T
   3    -83.3967914  0.588339E-06  0.395E-03    3.27       3.3  T
   4    -83.3967920 -0.672823E-06  0.780E-04    3.27      16.5  T
   5    -83.3967921 -0.278418E-07  0.315E-04    3.27      41.0  T
     SCC iter.                  ...        0 min,  0.014 sec
     gradient                   ...        0 min,  0.028 sec
 * total energy  :   -82.3135350 Eh     change       -0.8450039E-04 Eh
   gradient norm :     0.0103175 Eh/α   predicted    -0.6275637E-04 ( -25.73%)
   displ. norm   :     0.0495564 α      lambda       -0.9587499E-04
   maximum displ.:     0.0337671 α      in ANC's #28, #8, #18, ...

........................................................................
.............................. CYCLE   12 ..............................
........................................................................
   1    -83.3973851 -0.833974E+02  0.222E-02    3.27       0.0  T
   2    -83.3973854 -0.296195E-06  0.131E-02    3.27       1.0  T
   3    -83.3973846  0.711246E-06  0.392E-03    3.27       3.3  T
   4    -83.3973854 -0.785574E-06  0.760E-04    3.27      17.0  T
   5    -83.3973855 -0.297944E-07  0.229E-04    3.27      56.5  T
     SCC iter.                  ...        0 min,  0.014 sec
     gradient                   ...        0 min,  0.028 sec
 * total energy  :   -82.3136003 Eh     change       -0.6529215E-04 Eh
   gradient norm :     0.0049359 Eh/α   predicted    -0.4805669E-04 ( -26.40%)
   displ. norm   :     0.0415761 α      lambda       -0.7491888E-04
   maximum displ.:     0.0240093 α      in ANC's #28, #8, #42, ...

........................................................................
.............................. CYCLE   13 ..............................
........................................................................
   1    -83.3978635 -0.833979E+02  0.178E-02    3.27       0.0  T
   2    -83.3978637 -0.129879E-06  0.105E-02    3.27       1.2  T
   3    -83.3978630  0.698623E-06  0.369E-03    3.27       3.5  T
   4    -83.3978637 -0.743406E-06  0.630E-04    3.27      20.5  T
   5    -83.3978637 -0.247619E-07  0.226E-04    3.27      57.1  T
     SCC iter.                  ...        0 min,  0.014 sec
     gradient                   ...        0 min,  0.028 sec
 * total energy  :   -82.3136548 Eh     change       -0.5444773E-04 Eh
   gradient norm :     0.0051700 Eh/α   predicted    -0.3752739E-04 ( -31.08%)
   displ. norm   :     0.0528410 α      lambda       -0.7674778E-04
   maximum displ.:     0.0298934 α      in ANC's #28, #8, #42, ...

........................................................................
.............................. CYCLE   14 ..............................
........................................................................
   1    -83.3979178 -0.833979E+02  0.182E-02    3.28       0.0  T
   2    -83.3979179 -0.105050E-06  0.108E-02    3.28       1.2  T
   3    -83.3979170  0.907698E-06  0.410E-03    3.28       3.2  T
   4    -83.3979180 -0.983125E-06  0.610E-04    3.28      21.2  T
   5    -83.3979180 -0.180670E-07  0.286E-04    3.28      45.1  T
     SCC iter.                  ...        0 min,  0.014 sec
     gradient                   ...        0 min,  0.028 sec
 * total energy  :   -82.3137094 Eh     change       -0.5458155E-04 Eh
   gradient norm :     0.0066657 Eh/α   predicted    -0.3848992E-04 ( -29.48%)
   displ. norm   :     0.0476131 α      lambda       -0.5730237E-04
   maximum displ.:     0.0253301 α      in ANC's #28, #8, #42, ...

........................................................................
.............................. CYCLE   15 ..............................
........................................................................
   1    -83.3974793 -0.833975E+02  0.143E-02    3.28       0.0  T
   2    -83.3974794 -0.137283E-06  0.859E-03    3.28       1.5  T
   3    -83.3974787  0.735963E-06  0.377E-03    3.28       3.4  T
   4    -83.3974795 -0.813315E-06  0.665E-04    3.28      19.4  T
   5    -83.3974795 -0.226969E-07  0.263E-04    3.28      49.0  T
     SCC iter.                  ...        0 min,  0.014 sec
     gradient                   ...        0 min,  0.028 sec
 * total energy  :   -82.3137492 Eh     change       -0.3987910E-04 Eh
   gradient norm :     0.0043294 Eh/α   predicted    -0.2871758E-04 ( -27.99%)
   displ. norm   :     0.0348152 α      lambda       -0.3606187E-04
   maximum displ.:     0.0164462 α      in ANC's #28, #8, #37, ...

........................................................................
.............................. CYCLE   16 ..............................
........................................................................
   1    -83.3968642 -0.833969E+02  0.108E-02    3.28       0.0  T
   2    -83.3968644 -0.111702E-06  0.643E-03    3.28       2.0  T
   3    -83.3968641  0.241326E-06  0.243E-03    3.28       5.3  T
   4    -83.3968644 -0.276570E-06  0.471E-04    3.28      27.4  T
   5    -83.3968644 -0.970283E-08  0.159E-04    3.28      81.1  T
     SCC iter.                  ...        0 min,  0.014 sec
     gradient                   ...        0 min,  0.028 sec
 * total energy  :   -82.3137750 Eh     change       -0.2573395E-04 Eh
   gradient norm :     0.0024008 Eh/α   predicted    -0.1805935E-04 ( -29.82%)
   displ. norm   :     0.0322831 α      lambda       -0.2950442E-04
   maximum displ.:     0.0136993 α      in ANC's #8, #28, #29, ...

........................................................................
.............................. CYCLE   17 ..............................
........................................................................
   1    -83.3962730 -0.833963E+02  0.114E-02    3.28       0.0  T
   2    -83.3962730 -0.642567E-07  0.675E-03    3.28       1.9  T
   3    -83.3962729  0.162408E-06  0.192E-03    3.28       6.7  T
   4    -83.3962730 -0.176413E-06  0.456E-04    3.28      28.3  T
   5    -83.3962730 -0.954967E-08  0.175E-04    3.28      73.7  T
     SCC iter.                  ...        0 min,  0.014 sec
     gradient                   ...        0 min,  0.029 sec
 * total energy  :   -82.3137969 Eh     change       -0.2191040E-04 Eh
   gradient norm :     0.0034579 Eh/α   predicted    -0.1477681E-04 ( -32.56%)
   displ. norm   :     0.0424181 α      lambda       -0.3333465E-04
   maximum displ.:     0.0181459 α      in ANC's #8, #29, #28, ...

........................................................................
.............................. CYCLE   18 ..............................
........................................................................
   1    -83.3957226 -0.833957E+02  0.149E-02    3.28       0.0  T
   2    -83.3957226 -0.409903E-07  0.887E-03    3.28       1.5  T
   3    -83.3957223  0.256833E-06  0.218E-03    3.28       5.9  T
   4    -83.3957226 -0.275517E-06  0.446E-04    3.28      28.9  T
   5    -83.3957226 -0.837613E-08  0.200E-04    3.28      64.6  T
     SCC iter.                  ...        0 min,  0.014 sec
     gradient                   ...        0 min,  0.028 sec
 * total energy  :   -82.3138215 Eh     change       -0.2461898E-04 Eh
   gradient norm :     0.0044357 Eh/α   predicted    -0.1670129E-04 ( -32.16%)
   displ. norm   :     0.0502247 α      lambda       -0.3481645E-04
   maximum displ.:     0.0216600 α      in ANC's #8, #29, #28, ...

........................................................................
.............................. CYCLE   19 ..............................
........................................................................
   1    -83.3953832 -0.833954E+02  0.165E-02    3.28       0.0  T
   2    -83.3953832 -0.449360E-07  0.991E-03    3.28       1.3  T
   3    -83.3953828  0.430399E-06  0.267E-03    3.28       4.8  T
   4    -83.3953833 -0.463810E-06  0.462E-04    3.28      28.0  T
   5    -83.3953833 -0.778579E-08  0.231E-04    3.28      55.9  T
     SCC iter.                  ...        0 min,  0.014 sec
     gradient                   ...        0 min,  0.028 sec
 * total energy  :   -82.3138469 Eh     change       -0.2536041E-04 Eh
   gradient norm :     0.0038737 Eh/α   predicted    -0.1745627E-04 ( -31.17%)
   displ. norm   :     0.0498073 α      lambda       -0.3180188E-04
   maximum displ.:     0.0222945 α      in ANC's #29, #8, #28, ...

........................................................................
.............................. CYCLE   20 ..............................
........................................................................
   1    -83.3953499 -0.833953E+02  0.150E-02    3.28       0.0  T
   2    -83.3953500 -0.829436E-07  0.907E-03    3.28       1.4  T
   3    -83.3953495  0.464222E-06  0.292E-03    3.28       4.4  T
   4    -83.3953500 -0.510350E-06  0.434E-04    3.28      29.8  T
   5    -83.3953500 -0.690471E-08  0.212E-04    3.28      60.8  T
     SCC iter.                  ...        0 min,  0.014 sec
     gradient                   ...        0 min,  0.027 sec
 * total energy  :   -82.3138696 Eh     change       -0.2278447E-04 Eh
   gradient norm :     0.0024690 Eh/α   predicted    -0.1594499E-04 ( -30.02%)
   displ. norm   :     0.0423655 α      lambda       -0.2546491E-04
   maximum displ.:     0.0188990 α      in ANC's #29, #8, #28, ...
 * RMSD in coord.:     0.0988559 α      energy gain  -0.1719354E+00 Eh

generating ANC from model Hessian ...
Using Lindh-Hessian (1995)
 Shifting diagonal of input Hessian by    9.9089045492671435E-003
 Lowest  eigenvalues of input Hessian
    0.000000    0.000000    0.000000    0.000000    0.000000    0.000000
    0.010000    0.010040    0.010115    0.010538    0.011229    0.011863
    0.012272    0.013204    0.013232    0.013889    0.015033    0.015129
 Highest eigenvalues
    1.723819    1.879353    1.914389    1.931074    8.714591    9.141972


........................................................................
.............................. CYCLE   21 ..............................
........................................................................
   1    -83.3955275 -0.833955E+02  0.119E-02    3.27       0.0  T
   2    -83.3955276 -0.848681E-07  0.717E-03    3.27       1.8  T
   3    -83.3955273  0.328321E-06  0.268E-03    3.27       4.8  T
   4    -83.3955276 -0.366787E-06  0.363E-04    3.27      35.6  T
   5    -83.3955276 -0.501903E-08  0.153E-04    3.27      84.4  T
     SCC iter.                  ...        0 min,  0.014 sec
     gradient                   ...        0 min,  0.028 sec
 * total energy  :   -82.3138878 Eh     change       -0.1820110E-04 Eh
   gradient norm :     0.0022613 Eh/α   predicted     0.0000000E+00 (-100.00%)
   displ. norm   :     0.0412099 α      lambda       -0.2459732E-04
   maximum displ.:     0.0167745 α      in ANC's #1, #4, #10, ...

........................................................................
.............................. CYCLE   22 ..............................
........................................................................
   1    -83.3958095 -0.833958E+02  0.119E-02    3.27       0.0  T
   2    -83.3958095 -0.428946E-07  0.706E-03    3.27       1.8  T
   3    -83.3958094  0.144359E-06  0.161E-03    3.27       8.0  T
   4    -83.3958095 -0.157342E-06  0.396E-04    3.27      32.6  T
   5    -83.3958096 -0.665239E-08  0.161E-04    3.27      80.1  T
     SCC iter.                  ...        0 min,  0.014 sec
     gradient                   ...        0 min,  0.027 sec
 * total energy  :   -82.3139194 Eh     change       -0.3159817E-04 Eh
   gradient norm :     0.0012899 Eh/α   predicted    -0.2108945E-04 ( -33.26%)
   displ. norm   :     0.1121577 α      lambda       -0.3686811E-04
   maximum displ.:     0.0557190 α      in ANC's #1, #4, #10, ...

........................................................................
.............................. CYCLE   23 ..............................
........................................................................
   1    -83.3963021 -0.833963E+02  0.251E-02    3.27       0.0  T
   2    -83.3963022 -0.160693E-06  0.150E-02    3.27       1.0  T
   3    -83.3963017  0.513914E-06  0.306E-03    3.27       4.2  T
   4    -83.3963023 -0.559393E-06  0.780E-04    3.27      16.6  T
   5    -83.3963023 -0.229862E-07  0.347E-04    3.27      37.2  T
     SCC iter.                  ...        0 min,  0.014 sec
     gradient                   ...        0 min,  0.028 sec
 * total energy  :   -82.3139452 Eh     change       -0.2577936E-04 Eh
   gradient norm :     0.0019989 Eh/α   predicted    -0.1853742E-04 ( -28.09%)
   displ. norm   :     0.0505824 α      lambda       -0.1246582E-04
   maximum displ.:     0.0309427 α      in ANC's #1, #4, #6, ...

........................................................................
.............................. CYCLE   24 ..............................
........................................................................
   1    -83.3961965 -0.833962E+02  0.877E-03    3.27       0.0  T
   2    -83.3961965 -0.994547E-08  0.529E-03    3.27       2.4  T
   3    -83.3961963  0.183424E-06  0.166E-03    3.27       7.8  T
   4    -83.3961965 -0.197865E-06  0.212E-04    3.27      60.9  T
   5    -83.3961965 -0.104276E-08  0.123E-04    3.27     104.8  T
     SCC iter.                  ...        0 min,  0.014 sec
     gradient                   ...        0 min,  0.027 sec
 * total energy  :   -82.3139604 Eh     change       -0.1517769E-04 Eh
   gradient norm :     0.0030806 Eh/α   predicted    -0.6240620E-05 ( -58.88%)
   displ. norm   :     0.0827901 α      lambda       -0.2604769E-04
   maximum displ.:     0.0503829 α      in ANC's #1, #4, #2, ...

........................................................................
.............................. CYCLE   25 ..............................
........................................................................
   1    -83.3959378 -0.833959E+02  0.140E-02    3.27       0.0  T
   2    -83.3959378 -0.262191E-07  0.839E-03    3.27       1.5  T
   3    -83.3959377  0.859679E-07  0.127E-03    3.27      10.1  T
   4    -83.3959378 -0.959303E-07  0.338E-04    3.27      38.2  T
   5    -83.3959378 -0.349991E-08  0.188E-04    3.27      68.8  T
     SCC iter.                  ...        0 min,  0.014 sec
     gradient                   ...        0 min,  0.028 sec
 * total energy  :   -82.3139794 Eh     change       -0.1903712E-04 Eh
   gradient norm :     0.0015947 Eh/α   predicted    -0.1313350E-04 ( -31.01%)
   displ. norm   :     0.1563000 α      lambda       -0.1941520E-04
   maximum displ.:     0.0973466 α      in ANC's #1, #4, #2, ...

........................................................................
.............................. CYCLE   26 ..............................
........................................................................
   1    -83.3954717 -0.833955E+02  0.223E-02    3.27       0.0  T
   2    -83.3954717 -0.550336E-07  0.134E-02    3.27       1.0  T
   3    -83.3954716  0.145448E-06  0.185E-03    3.27       7.0  T
   4    -83.3954717 -0.169211E-06  0.453E-04    3.27      28.5  T
   5    -83.3954718 -0.365311E-08  0.244E-04    3.27      52.9  T
     SCC iter.                  ...        0 min,  0.014 sec
     gradient                   ...        0 min,  0.028 sec
 * total energy  :   -82.3140007 Eh     change       -0.2127972E-04 Eh
   gradient norm :     0.0014398 Eh/α   predicted    -0.9814281E-05 ( -53.88%)
   displ. norm   :     0.1212166 α      lambda       -0.1412962E-04
   maximum displ.:     0.0785110 α      in ANC's #1, #4, #2, ...

........................................................................
.............................. CYCLE   27 ..............................
........................................................................
   1    -83.3954630 -0.833955E+02  0.142E-02    3.27       0.0  T
   2    -83.3954631 -0.250130E-07  0.852E-03    3.27       1.5  T
   3    -83.3954629  0.128190E-06  0.160E-03    3.27       8.1  T
   4    -83.3954631 -0.141242E-06  0.345E-04    3.27      37.4  T
   5    -83.3954631 -0.307620E-08  0.182E-04    3.27      70.8  T
     SCC iter.                  ...        0 min,  0.015 sec
     gradient                   ...        0 min,  0.028 sec
 * total energy  :   -82.3140193 Eh     change       -0.1859986E-04 Eh
   gradient norm :     0.0023514 Eh/α   predicted    -0.7112761E-05 ( -61.76%)
   displ. norm   :     0.1137623 α      lambda       -0.2155023E-04
   maximum displ.:     0.0738962 α      in ANC's #1, #4, #2, ...

........................................................................
.............................. CYCLE   28 ..............................
........................................................................
   1    -83.3955973 -0.833956E+02  0.129E-02    3.27       0.0  T
   2    -83.3955973 -0.224573E-07  0.777E-03    3.27       1.7  T
   3    -83.3955970  0.334714E-06  0.232E-03    3.27       5.6  T
   4    -83.3955974 -0.361498E-06  0.308E-04    3.27      42.0  T
   5    -83.3955974 -0.217103E-08  0.166E-04    3.27      77.9  T
     SCC iter.                  ...        0 min,  0.014 sec
     gradient                   ...        0 min,  0.027 sec
 * total energy  :   -82.3140381 Eh     change       -0.1877840E-04 Eh
   gradient norm :     0.0023440 Eh/α   predicted    -0.1091873E-04 ( -41.85%)
   displ. norm   :     0.1856792 α      lambda       -0.3151833E-04
   maximum displ.:     0.1206529 α      in ANC's #1, #4, #2, ...

........................................................................
.............................. CYCLE   29 ..............................
........................................................................
   1    -83.3957118 -0.833957E+02  0.202E-02    3.27       0.0  T
   2    -83.3957119 -0.659106E-07  0.120E-02    3.27       1.1  T
   3    -83.3957116  0.253549E-06  0.216E-03    3.27       6.0  T
   4    -83.3957119 -0.281477E-06  0.523E-04    3.27      24.7  T
   5    -83.3957119 -0.826545E-08  0.255E-04    3.27      50.7  T
     SCC iter.                  ...        0 min,  0.014 sec
     gradient                   ...        0 min,  0.028 sec
 * total energy  :   -82.3140634 Eh     change       -0.2534248E-04 Eh
   gradient norm :     0.0014051 Eh/α   predicted    -0.1630376E-04 ( -35.67%)
   displ. norm   :     0.2768083 α      lambda       -0.2308953E-04
   maximum displ.:     0.1812271 α      in ANC's #1, #4, #2, ...

........................................................................
.............................. CYCLE   30 ..............................
........................................................................
   1    -83.3956774 -0.833957E+02  0.285E-02    3.27       0.0  T
   2    -83.3956775 -0.112978E-06  0.170E-02    3.27       1.0  T
   3    -83.3956770  0.458168E-06  0.288E-03    3.27       4.5  T
   4    -83.3956775 -0.513406E-06  0.675E-04    3.27      19.1  T
   5    -83.3956776 -0.115883E-07  0.341E-04    3.27      37.9  T
     SCC iter.                  ...        0 min,  0.014 sec
     gradient                   ...        0 min,  0.028 sec
 * total energy  :   -82.3140891 Eh     change       -0.2562243E-04 Eh
   gradient norm :     0.0019304 Eh/α   predicted    -0.1193883E-04 ( -53.40%)
   displ. norm   :     0.1532421 α      lambda       -0.1273178E-04
   maximum displ.:     0.1044081 α      in ANC's #1, #2, #4, ...

........................................................................
.............................. CYCLE   31 ..............................
........................................................................
   1    -83.3958656 -0.833959E+02  0.156E-02    3.27       0.0  T
   2    -83.3958656 -0.404307E-07  0.930E-03    3.27       1.4  T
   3    -83.3958654  0.235823E-06  0.197E-03    3.27       6.5  T
   4    -83.3958656 -0.259882E-06  0.358E-04    3.27      36.1  T
   5    -83.3958656 -0.320277E-08  0.213E-04    3.27      60.6  T
     SCC iter.                  ...        0 min,  0.014 sec
     gradient                   ...        0 min,  0.028 sec
 * total energy  :   -82.3141051 Eh     change       -0.1607164E-04 Eh
   gradient norm :     0.0014949 Eh/α   predicted    -0.6433574E-05 ( -59.97%)
   displ. norm   :     0.1276332 α      lambda       -0.1250097E-04
   maximum displ.:     0.0896199 α      in ANC's #1, #2, #4, ...

........................................................................
.............................. CYCLE   32 ..............................
........................................................................
   1    -83.3960350 -0.833960E+02  0.134E-02    3.27       0.0  T
   2    -83.3960351 -0.376763E-07  0.797E-03    3.27       1.6  T
   3    -83.3960350  0.700520E-07  0.116E-03    3.27      11.1  T
   4    -83.3960351 -0.770474E-07  0.383E-04    3.27      33.7  T
   5    -83.3960351 -0.651818E-08  0.173E-04    3.27      74.8  T
     SCC iter.                  ...        0 min,  0.014 sec
     gradient                   ...        0 min,  0.028 sec
 * total energy  :   -82.3141204 Eh     change       -0.1532092E-04 Eh
   gradient norm :     0.0009876 Eh/α   predicted    -0.6297840E-05 ( -58.89%)
   displ. norm   :     0.1171116 α      lambda       -0.1051756E-04
   maximum displ.:     0.0844028 α      in ANC's #1, #2, #6, ...

........................................................................
.............................. CYCLE   33 ..............................
........................................................................
   1    -83.3959766 -0.833960E+02  0.123E-02    3.27       0.0  T
   2    -83.3959766 -0.340126E-07  0.734E-03    3.27       1.8  T
   3    -83.3959765  0.115440E-06  0.137E-03    3.27       9.4  T
   4    -83.3959766 -0.125707E-06  0.342E-04    3.27      37.8  T
   5    -83.3959766 -0.479886E-08  0.158E-04    3.27      81.9  T
     SCC iter.                  ...        0 min,  0.014 sec
     gradient                   ...        0 min,  0.028 sec
 * total energy  :   -82.3141336 Eh     change       -0.1317649E-04 Eh
   gradient norm :     0.0007526 Eh/α   predicted    -0.5291428E-05 ( -59.84%)
   displ. norm   :     0.1021799 α      lambda       -0.8698019E-05
   maximum displ.:     0.0736912 α      in ANC's #1, #2, #6, ...

........................................................................
.............................. CYCLE   34 ..............................
........................................................................
   1    -83.3960564 -0.833961E+02  0.107E-02    3.27       0.0  T
   2    -83.3960564 -0.217983E-07  0.638E-03    3.27       2.0  T
   3    -83.3960564  0.624254E-08  0.499E-04    3.27      25.8  T
   4    -83.3960564 -0.115345E-07  0.220E-04    3.27      58.8  T
     SCC iter.                  ...        0 min,  0.011 sec
     gradient                   ...        0 min,  0.028 sec
 * total energy  :   -82.3141451 Eh     change       -0.1146888E-04 Eh
   gradient norm :     0.0008081 Eh/α   predicted    -0.4369440E-05 ( -61.90%)
   displ. norm   :     0.1065883 α      lambda       -0.8979890E-05
   maximum displ.:     0.0761713 α      in ANC's #1, #2, #6, ...

........................................................................
.............................. CYCLE   35 ..............................
........................................................................
   1    -83.3960604 -0.833961E+02  0.108E-02    3.27       0.0  T
   2    -83.3960604 -0.201458E-07  0.644E-03    3.27       2.0  T
   3    -83.3960604  0.362970E-07  0.874E-04    3.27      14.8  T
   4    -83.3960604 -0.425827E-07  0.266E-04    3.27      48.4  T
     SCC iter.                  ...        0 min,  0.011 sec
     gradient                   ...        0 min,  0.027 sec
 * total energy  :   -82.3141569 Eh     change       -0.1181562E-04 Eh
   gradient norm :     0.0004814 Eh/α   predicted    -0.4515449E-05 ( -61.78%)
   displ. norm   :     0.1095444 α      lambda       -0.8704275E-05
   maximum displ.:     0.0787200 α      in ANC's #1, #2, #6, ...

........................................................................
.............................. CYCLE   36 ..............................
........................................................................
   1    -83.3960599 -0.833961E+02  0.110E-02    3.27       0.0  T
   2    -83.3960599 -0.137765E-07  0.660E-03    3.27       2.0  T
   3    -83.3960599  0.339235E-07  0.821E-04    3.27      15.7  T
   4    -83.3960599 -0.397590E-07  0.256E-04    3.27      50.4  T
     SCC iter.                  ...        0 min,  0.011 sec
     gradient                   ...        0 min,  0.028 sec
 * total energy  :   -82.3141682 Eh     change       -0.1130861E-04 Eh
   gradient norm :     0.0008018 Eh/α   predicted    -0.4376160E-05 ( -61.30%)
   displ. norm   :     0.1037531 α      lambda       -0.7732900E-05
   maximum displ.:     0.0755112 α      in ANC's #1, #2, #4, ...

........................................................................
.............................. CYCLE   37 ..............................
........................................................................
   1    -83.3960697 -0.833961E+02  0.982E-03    3.27       0.0  T
   2    -83.3960698 -0.116727E-07  0.591E-03    3.27       2.2  T
   3    -83.3960697  0.600280E-07  0.102E-03    3.27      12.7  T
   4    -83.3960698 -0.663349E-07  0.220E-04    3.27      58.7  T
   5    -83.3960698 -0.110624E-08  0.990E-05    3.27     130.4  T
     SCC iter.                  ...        0 min,  0.014 sec
     gradient                   ...        0 min,  0.028 sec
 * total energy  :   -82.3141786 Eh     change       -0.1033538E-04 Eh
   gradient norm :     0.0003759 Eh/α   predicted    -0.3885692E-05 ( -62.40%)
   displ. norm   :     0.1039430 α      lambda       -0.7812497E-05
   maximum displ.:     0.0757425 α      in ANC's #1, #2, #4, ...

........................................................................
.............................. CYCLE   38 ..............................
........................................................................
   1    -83.3960407 -0.833960E+02  0.978E-03    3.27       0.0  T
   2    -83.3960407 -0.136844E-07  0.588E-03    3.27       2.2  T
   3    -83.3960407  0.189837E-07  0.656E-04    3.27      19.7  T
   4    -83.3960407 -0.224258E-07  0.240E-04    3.27      53.7  T
     SCC iter.                  ...        0 min,  0.012 sec
     gradient                   ...        0 min,  0.028 sec
 * total energy  :   -82.3141894 Eh     change       -0.1083690E-04 Eh
   gradient norm :     0.0004706 Eh/α   predicted    -0.3925946E-05 ( -63.77%)
   displ. norm   :     0.1277649 α      lambda       -0.1002979E-04
   maximum displ.:     0.0920308 α      in ANC's #1, #2, #4, ...

........................................................................
.............................. CYCLE   39 ..............................
........................................................................
   1    -83.3959909 -0.833960E+02  0.126E-02    3.27       0.0  T
   2    -83.3959910 -0.334335E-07  0.756E-03    3.27       1.7  T
   3    -83.3959909  0.802180E-07  0.125E-03    3.27      10.3  T
   4    -83.3959910 -0.892324E-07  0.338E-04    3.27      38.2  T
   5    -83.3959910 -0.386460E-08  0.163E-04    3.27      79.4  T
     SCC iter.                  ...        0 min,  0.014 sec
     gradient                   ...        0 min,  0.027 sec
 * total energy  :   -82.3142033 Eh     change       -0.1394834E-04 Eh
   gradient norm :     0.0004900 Eh/α   predicted    -0.5052016E-05 ( -63.78%)
   displ. norm   :     0.1793735 α      lambda       -0.1386037E-04
   maximum displ.:     0.1280384 α      in ANC's #1, #2, #4, ...

........................................................................
.............................. CYCLE   40 ..............................
........................................................................
   1    -83.3958738 -0.833959E+02  0.180E-02    3.27       0.0  T
   2    -83.3958739 -0.811754E-07  0.108E-02    3.27       1.2  T
   3    -83.3958737  0.134137E-06  0.163E-03    3.27       7.9  T
   4    -83.3958739 -0.157230E-06  0.424E-04    3.27      30.4  T
   5    -83.3958739 -0.494738E-08  0.217E-04    3.27      59.5  T
     SCC iter.                  ...        0 min,  0.014 sec
     gradient                   ...        0 min,  0.028 sec
 * total energy  :   -82.3142220 Eh     change       -0.1867420E-04 Eh
   gradient norm :     0.0005966 Eh/α   predicted    -0.7031653E-05 ( -62.35%)
   displ. norm   :     0.2305091 α      lambda       -0.1593143E-04
   maximum displ.:     0.1641379 α      in ANC's #1, #2, #4, ...

........................................................................
.............................. CYCLE   41 ..............................
........................................................................
   1    -83.3957127 -0.833957E+02  0.237E-02    3.27       0.0  T
   2    -83.3957128 -0.155088E-06  0.142E-02    3.27       1.0  T
   3    -83.3957126  0.267487E-06  0.228E-03    3.27       5.7  T
   4    -83.3957129 -0.312802E-06  0.561E-04    3.27      23.0  T
   5    -83.3957129 -0.895507E-08  0.286E-04    3.27      45.2  T
     SCC iter.                  ...        0 min,  0.014 sec
     gradient                   ...        0 min,  0.028 sec
 * total energy  :   -82.3142427 Eh     change       -0.2066450E-04 Eh
   gradient norm :     0.0007607 Eh/α   predicted    -0.8155300E-05 ( -60.53%)
   displ. norm   :     0.2387667 α      lambda       -0.1395131E-04
   maximum displ.:     0.1709215 α      in ANC's #1, #2, #4, ...

........................................................................
.............................. CYCLE   42 ..............................
........................................................................
   1    -83.3956178 -0.833956E+02  0.240E-02    3.27       0.0  T
   2    -83.3956179 -0.145743E-06  0.144E-02    3.27       1.0  T
   3    -83.3956177  0.207159E-06  0.202E-03    3.27       6.4  T
   4    -83.3956180 -0.247233E-06  0.554E-04    3.27      23.3  T
   5    -83.3956180 -0.864208E-08  0.292E-04    3.27      44.2  T
     SCC iter.                  ...        0 min,  0.014 sec
     gradient                   ...        0 min,  0.028 sec
 * total energy  :   -82.3142605 Eh     change       -0.1783045E-04 Eh
   gradient norm :     0.0011315 Eh/α   predicted    -0.7153150E-05 ( -59.88%)
   displ. norm   :     0.2112199 α      lambda       -0.1093494E-04
   maximum displ.:     0.1520747 α      in ANC's #1, #2, #4, ...
 * RMSD in coord.:     0.3379916 α      energy gain  -0.3908683E-03 Eh

generating ANC from model Hessian ...
Using Lindh-Hessian (1995)
 Shifting diagonal of input Hessian by    9.9027163759970501E-003
 Lowest  eigenvalues of input Hessian
    0.000000    0.000000    0.000000    0.000000    0.000000    0.000000
    0.010000    0.010036    0.010115    0.010541    0.011177    0.011827
    0.012330    0.013197    0.013217    0.013851    0.014921    0.015135
 Highest eigenvalues
    1.727142    1.877354    1.915607    1.929335    8.704615    9.143296


........................................................................
.............................. CYCLE   43 ..............................
........................................................................
   1    -83.3956210 -0.833956E+02  0.210E-02    3.27       0.0  T
   2    -83.3956211 -0.101433E-06  0.126E-02    3.27       1.0  T
   3    -83.3956210  0.173883E-06  0.186E-03    3.27       7.0  T
   4    -83.3956212 -0.205852E-06  0.487E-04    3.27      26.5  T
   5    -83.3956212 -0.630371E-08  0.257E-04    3.27      50.2  T
     SCC iter.                  ...        0 min,  0.014 sec
     gradient                   ...        0 min,  0.028 sec
 * total energy  :   -82.3142747 Eh     change       -0.1423669E-04 Eh
   gradient norm :     0.0007346 Eh/α   predicted     0.0000000E+00 (-100.00%)
   displ. norm   :     0.0200175 α      lambda        0.5849087E-06
   maximum displ.:     0.0122898 α      in ANC's #1, #7, #22, ...

........................................................................
.............................. CYCLE   44 ..............................
........................................................................
   1    -83.3959046 -0.833959E+02  0.314E-03    3.27       0.0  T
   2    -83.3959046 -0.617565E-08  0.186E-03    3.27       6.9  T
   3    -83.3959046  0.558300E-08  0.366E-04    3.27      35.3  T
   4    -83.3959046 -0.610871E-08  0.116E-04    3.27     111.4  T
     SCC iter.                  ...        0 min,  0.011 sec
     gradient                   ...        0 min,  0.028 sec
 * total energy  :   -82.3142782 Eh     change       -0.3435137E-05 Eh
   gradient norm :     0.0010496 Eh/α   predicted    -0.1334428E-05 ( -61.15%)
   displ. norm   :     0.0876052 α      lambda       -0.9462744E-05
   maximum displ.:     0.0490508 α      in ANC's #1, #7, #22, ...

........................................................................
.............................. CYCLE   45 ..............................
........................................................................
   1    -83.3964758 -0.833965E+02  0.130E-02    3.27       0.0  T
   2    -83.3964758 -0.601357E-07  0.774E-03    3.27       1.7  T
   3    -83.3964758  0.650671E-07  0.121E-03    3.27      10.7  T
   4    -83.3964759 -0.763055E-07  0.339E-04    3.27      38.1  T
   5    -83.3964759 -0.406817E-08  0.138E-04    3.27      93.8  T
     SCC iter.                  ...        0 min,  0.014 sec
     gradient                   ...        0 min,  0.028 sec
 * total energy  :   -82.3142871 Eh     change       -0.8953245E-05 Eh
   gradient norm :     0.0020849 Eh/α   predicted    -0.4757208E-05 ( -46.87%)
   displ. norm   :     0.0404425 α      lambda       -0.4176401E-05
   maximum displ.:     0.0256555 α      in ANC's #1, #7, #5, ...

........................................................................
.............................. CYCLE   46 ..............................
........................................................................
   1    -83.3961726 -0.833962E+02  0.546E-03    3.27       0.0  T
   2    -83.3961726 -0.917831E-08  0.327E-03    3.27       4.0  T
   3    -83.3961725  0.105092E-06  0.133E-03    3.27       9.7  T
   4    -83.3961726 -0.114360E-06  0.193E-04    3.27      67.0  T
   5    -83.3961726 -0.151081E-08  0.916E-05    3.27     140.9  T
     SCC iter.                  ...        0 min,  0.014 sec
     gradient                   ...        0 min,  0.027 sec
 * total energy  :   -82.3142899 Eh     change       -0.2757205E-05 Eh
   gradient norm :     0.0009433 Eh/α   predicted    -0.2105480E-05 ( -23.64%)
   displ. norm   :     0.0349412 α      lambda       -0.1520037E-05
   maximum displ.:     0.0256375 α      in ANC's #1, #7, #5, ...

   *** GEOMETRY OPTIMIZATION CONVERGED AFTER 46 ITERATIONS ***

------------------------------------------------------------------------
 total energy gain   :        -0.1723557 Eh     -108.1548 kcal/mol
 total RMSD          :         0.3739385 a0        0.1979 Å
 total power (kW/mol):        -9.8373875 (step) -189.6707 (real)
------------------------------------------------------------------------

 ANCopt (total)                0 d,  0 h,  0 min,  2.386 sec
 optimizer setup                ...        0 min,  0.000 sec (  0.004%)
 model hessian                  ...        0 min,  0.095 sec (  3.971%)
 ANC generation                 ...        0 min,  0.008 sec (  0.336%)
 coordinate transformation      ...        0 min,  0.001 sec (  0.029%)
 single point calculation       ...        0 min,  2.266 sec ( 94.991%)
 optimization log               ...        0 min,  0.010 sec (  0.400%)
 hessian update                 ...        0 min,  0.001 sec (  0.044%)
 rational function              ...        0 min,  0.004 sec (  0.147%)

================
 final structure:
================
60
 xtb: 6.5.0 (homebrew)
C            3.35638808774328      -37.92796749285485       16.05029867970301
C            3.65148962421057      -38.22684361200898       17.51859319398664
O            3.22315469564957      -37.12939462499070       18.32216535969751
C            2.82835694771264      -39.44488574980303       17.95690981808607
C            5.17793878575576      -38.35685250095226       17.87531893473238
C            5.67606441710924      -39.78904055587137       18.05769928570191
C            6.08998493711342      -37.63270080587004       16.87690826190780
O            5.28274753754089      -37.65797033591369       19.11518954455688
B            4.16075272532476      -36.89618125050318       19.29071693131904
C            3.96361201744391      -35.88535943242505       20.46081324970760
C            4.98920182755047      -35.65909173143952       21.31203926734634
C            5.06004781726486      -34.67863570808303       22.36795676622629
H            6.00325133410085      -34.65008927185792       22.89820575935443
C            3.87702732483771      -34.11775737339327       23.12018660083909
H            4.11538395062059      -33.79522623049201       24.12789020135226
C            2.53296377486379      -34.73647945405423       23.05861303816602
B            1.75097782581859      -34.85989704392619       24.40489932767539
O            2.23820926475510      -34.42827846162796       25.60806372384044
C            1.35761060524353      -34.86393642436530       26.64311549950182
C            1.19293746918510      -33.75038742319857       27.67459283077910
C            2.02295098576109      -36.07362681337149       27.31168711060778
C            0.04828551407387      -35.24223935561529       25.85943001981592
C           -0.97586126791893      -34.10095118584694       25.82236844573050
C           -0.64210006967373      -36.51783389586377       26.33703137690616
O            0.51334312491309      -35.42587961925440       24.52265294298944
C            2.00101106268770      -35.20962316570538       21.92905980955482
C            2.62714549590678      -35.21080440088495       20.57493628828934
H            1.93757725399752      -35.65646306898075       19.85788523772926
C            3.14332623370006      -33.91909260243853       20.05268383244522
C            3.89226569119448      -33.03621832273726       20.72467907227698
C            4.44319171638226      -33.22701097821940       22.04992442893349
H            5.05328174506554      -32.40736963201745       22.40799677958220
H            2.27947191493005      -37.86874810490825       15.91303788261292
H            3.74810552494864      -38.72100749138139       15.41915146314332
H            3.78617702526556      -36.97839771491428       15.74848051057536
H            1.77355365876156      -39.21278721222286       17.82736642452623
H            2.99842717499972      -39.65388272068903       19.01005315979053
H            3.07323391126393      -40.31999858699116       17.36266467219258
H            5.52722568101728      -40.35894729654495       17.14459121318595
H            5.16572977676067      -40.27980111790370       18.87996467144123
H            6.73819180938434      -39.76461365705561       18.28838650867874
H            6.08934987880610      -38.12974119302152       15.91150634050267
H            7.10254156687191      -37.63129703179306       17.27395057845023
H            5.77468020284808      -36.59895321875639       16.76053580690342
H            5.91493590194075      -36.18097775657081       21.10447214406268
H            2.14867275963849      -33.57988450996989       28.16402770274303
H            0.46059680012003      -34.03803854927179       28.42404677321004
H            0.88570327741984      -32.82196378886138       27.20449046603801
H            2.99790113666442      -35.76869953082275       27.68522880398837
H            2.17582822504336      -36.86713406653847       26.58460565756368
H            1.42632414576550      -36.44238221615227       28.14052818822014
H           -1.40630243888778      -33.92681760673589       26.80391030435143
H           -1.76944887012419      -34.37274080259026       25.13025306638636
H           -0.50977014926435      -33.18977289941171       25.45614059509530
H           -0.92275764345679      -36.42506977784095       27.38268942687559
H            0.00027898260513      -37.38288144767707       26.20840760979430
H           -1.53978083410986      -36.67463758554096       25.74417913149144
H            1.01755818365189      -35.65524070015351       21.98834060827573
H            2.89144937766992      -33.69497980312426       19.02386541830706
H            4.24332456353290      -32.15346508798816       20.20445325225124

 Bond Distances (Angstroems)
 ---------------------------
C1-C2=1.5272         C1-H33=1.0872        C1-H34=1.0866        C1-H35=1.0851        C2-C1=1.5272         C2-O3=1.4260         
C2-C4=1.5340         C2-C5=1.5730         O3-C2=1.4260         O3-B9=1.3681         C4-C2=1.5340         C4-H36=1.0878        
C4-H37=1.0871        C4-H38=1.0858        C5-C2=1.5730         C5-C6=1.5273         C5-C7=1.5340         C5-O8=1.4271         
C6-C5=1.5273         C6-H39=1.0866        C6-H40=1.0851        C6-H41=1.0872        C7-C5=1.5340         C7-H42=1.0858        
C7-H43=1.0876        C7-H44=1.0870        O8-C5=1.4271         O8-B9=1.3675         B9-O3=1.3681         B9-O8=1.3675         
B9-C10=1.5588        C10-B9=1.5588        C10-C11=1.3519       C10-C27=1.5014       C11-C10=1.3519       C11-C12=1.4427       
C11-H45=1.0828       C12-C11=1.4427       C12-H13=1.0824       C12-C14=1.5100       C12-C31=1.6090       H13-C12=1.0824       
C14-C12=1.5100       C14-H15=1.0846       C14-C16=1.4809       C14-C31=1.5031       H15-C14=1.0846       C16-C14=1.4809       
C16-B17=1.5618       C16-C26=1.3352       B17-C16=1.5618       B17-O18=1.3680       B17-O25=1.3660       O18-B17=1.3680       
O18-C19=1.4271       C19-O18=1.4271       C19-C20=1.5268       C19-C21=1.5340       C19-C22=1.5721       C20-C19=1.5268       
C20-H46=1.0872       C20-H47=1.0866       C20-H48=1.0851       C21-C19=1.5340       C21-H49=1.0877       C21-H50=1.0870       
C21-H51=1.0858       C22-C19=1.5721       C22-C23=1.5339       C22-C24=1.5270       C22-O25=1.4272       C23-C22=1.5339       
C23-H52=1.0858       C23-H53=1.0875       C23-H54=1.0870       C24-C22=1.5270       C24-H55=1.0866       C24-H56=1.0851       
C24-H57=1.0871       O25-B17=1.3660       O25-C22=1.4272       C26-C16=1.3352       C26-C27=1.4919       C26-H58=1.0813       
C27-C10=1.5014       C27-C26=1.4919       C27-H28=1.0901       C27-C29=1.4858       H28-C27=1.0901       C29-C27=1.4858       
C29-C30=1.3386       C29-H59=1.0827       C30-C29=1.3386       C30-C31=1.4478       C30-H60=1.0831       C31-C12=1.6090       
C31-C14=1.5031       C31-C30=1.4478       C31-H32=1.0827       H32-C31=1.0827       H33-C1=1.0872        H34-C1=1.0866        
H35-C1=1.0851        H36-C4=1.0878        H37-C4=1.0871        H38-C4=1.0858        H39-C6=1.0866        H40-C6=1.0851        
H41-C6=1.0872        H42-C7=1.0858        H43-C7=1.0876        H44-C7=1.0870        H45-C11=1.0828       H46-C20=1.0872       
H47-C20=1.0866       H48-C20=1.0851       H49-C21=1.0877       H50-C21=1.0870       H51-C21=1.0858       H52-C23=1.0858       
H53-C23=1.0875       H54-C23=1.0870       H55-C24=1.0866       H56-C24=1.0851       H57-C24=1.0871       H58-C26=1.0813       
H59-C29=1.0827       H60-C30=1.0831       
 C  H  Rav=1.0859 sigma=0.0019  Rmin=1.0813  Rmax=1.0901    32
 C  B  Rav=1.5603 sigma=0.0015  Rmin=1.5588  Rmax=1.5618     2
 C  C  Rav=1.4949 sigma=0.0711  Rmin=1.3352  Rmax=1.6090    22
 O  B  Rav=1.3674 sigma=0.0008  Rmin=1.3660  Rmax=1.3681     4
 O  C  Rav=1.4269 sigma=0.0005  Rmin=1.4260  Rmax=1.4272     4

 selected bond angles (degree)
 --------------------
H33-C1-C2=108.87               H34-C1-C2=110.24               H34-C1-H33=108.87              H35-C1-C2=111.23               
H35-C1-H33=108.03              H35-C1-H34=109.53              O3-C2-C1=109.46                C4-C2-C1=109.05                
C4-C2-O3=106.79                C5-C2-C1=114.94                C5-C2-O3=103.14                C5-C2-C4=112.97                
B9-O3-C2=108.92                H36-C4-C2=108.47               H37-C4-C2=110.21               H37-C4-H36=107.94              
H38-C4-C2=111.26               H38-C4-H36=109.00              H38-C4-H37=109.88              C6-C5-C2=114.90                
C7-C5-C2=112.98                C7-C5-C6=109.06                O8-C5-C2=103.17                O8-C5-C6=109.36                
O8-C5-C7=106.90                H39-C6-C5=110.29               H40-C6-C5=111.17               H40-C6-H39=109.58              
H41-C6-C5=108.84               H41-C6-H39=108.90              H41-C6-H40=107.99              H42-C7-C5=111.24               
H43-C7-C5=108.45               H43-C7-H42=109.01              H44-C7-C5=110.25               H44-C7-H42=109.87              
H44-C7-H43=107.93              B9-O8-C5=108.91                O8-B9-O3=112.12                C10-B9-O3=123.73               
C10-B9-O8=124.15               C11-C10-B9=119.03              C27-C10-B9=117.45              C27-C10-C11=123.52             

 selected dihedral angles (degree)
 ---------------------------------
O3-C2-C1-H33=294.93           O3-C2-C1-H34=175.56           O3-C2-C1-H35= 53.86           C4-C2-C1-H33= 51.42           
C4-C2-C1-H34=292.06           C4-C2-C1-H35=170.35           C5-C2-C1-H33=179.45           C5-C2-C1-H34= 60.08           
C5-C2-C1-H35=298.38           B9-O3-C2-C1=221.14            B9-O3-C2-C4=103.22            B9-O3-C2-C5=343.94            
H36-C4-C2-C1=299.91           H36-C4-C2-O3= 58.10           H36-C4-C2-C5=170.79           H37-C4-C2-C1=181.93           
H37-C4-C2-O3=300.12           H37-C4-C2-C5= 52.81           H38-C4-C2-C1= 59.79           H38-C4-C2-O3=177.98           
H38-C4-C2-C5=290.67           C6-C5-C2-C1=257.09            C6-C5-C2-O3=138.02            C6-C5-C2-C4= 23.12            
C7-C5-C2-C1= 23.09            C7-C5-C2-O3=264.03            C7-C5-C2-C4=149.12            O8-C5-C2-C1=138.14            
O8-C5-C2-O3= 19.07            O8-C5-C2-C4=264.17            H39-C6-C5-C2= 59.94           H39-C6-C5-C7=291.93           
H39-C6-C5-O8=175.36           H40-C6-C5-C2=298.17           H40-C6-C5-C7=170.17           H40-C6-C5-O8= 53.60           
H41-C6-C5-C2=179.35           H41-C6-C5-C7= 51.34           H41-C6-C5-O8=294.77           H42-C7-C5-C2=290.87           
H42-C7-C5-C6= 59.95           H42-C7-C5-O8=178.08           H43-C7-C5-C2=171.00           H43-C7-C5-C6=300.08           
H43-C7-C5-O8= 58.21           H44-C7-C5-C2= 53.03           H44-C7-C5-C6=182.10           H44-C7-C5-O8=300.23           
B9-O8-C5-C2=344.34            B9-O8-C5-C6=221.62            B9-O8-C5-C7=103.69            O8-B9-O3-C2=  7.14            
C10-B9-O3-C2=187.51           O3-B9-O8-C5=  6.44            C10-B9-O8-C5=186.07           C11-C10-B9-O3=184.65          
C11-C10-B9-O8=  5.06          C27-C10-B9-O3=  4.57          C27-C10-B9-O8=184.98          
           -------------------------------------------------
          |                Final Singlepoint                |
           -------------------------------------------------

          ...................................................
          :                      SETUP                      :
          :.................................................:
          :  # basis functions                 144          :
          :  # atomic orbitals                 144          :
          :  # shells                           88          :
          :  # electrons                       150          :
          :  max. iterations                   250          :
          :  Hamiltonian                  GFN2-xTB          :
          :  restarted?                      false          :
          :  GBSA solvation                  false          :
          :  PC potential                    false          :
          :  electronic temp.          300.0000000     K    :
          :  accuracy                    1.0000000          :
          :  -> integral cutoff          0.2500000E+02      :
          :  -> integral neglect         0.1000000E-07      :
          :  -> SCF convergence          0.1000000E-05 Eh   :
          :  -> wf. convergence          0.1000000E-03 e    :
          :  Broyden damping             0.4000000          :
          ...................................................

 iter      E             dE          RMSdq      gap      omega  full diag
   1    -83.3961726 -0.833962E+02  0.493E-05    3.27       0.0  T
   2    -83.3961726 -0.862599E-11  0.356E-05    3.27     363.0  T
   3    -83.3961726 -0.278391E-10  0.217E-05    3.27     595.9  T

   *** convergence criteria satisfied after 3 iterations ***

         #    Occupation            Energy/Eh            Energy/eV
      -------------------------------------------------------------
         1        2.0000           -0.6877521             -18.7147
       ...           ...                  ...                  ...
        69        2.0000           -0.4070559             -11.0766
        70        2.0000           -0.3976575             -10.8208
        71        2.0000           -0.3966884             -10.7944
        72        2.0000           -0.3956230             -10.7654
        73        2.0000           -0.3847541             -10.4697
        74        2.0000           -0.3571473              -9.7185
        75        2.0000           -0.3432851              -9.3413 (HOMO)
        76                         -0.2231991              -6.0736 (LUMO)
        77                         -0.2114350              -5.7534
        78                         -0.1852794              -5.0417
        79                         -0.1027401              -2.7957
        80                         -0.0924688              -2.5162
       ...                                ...                  ...
       144                          0.6894483              18.7608
      -------------------------------------------------------------
                  HL-Gap            0.1200861 Eh            3.2677 eV
             Fermi-level           -0.2832421 Eh           -7.7074 eV

 SCC (total)                   0 d,  0 h,  0 min,  0.042 sec
 SCC setup                      ...        0 min,  0.000 sec (  0.521%)
 Dispersion                     ...        0 min,  0.000 sec (  0.875%)
 classical contributions        ...        0 min,  0.000 sec (  0.399%)
 integral evaluation            ...        0 min,  0.006 sec ( 13.786%)
 iterations                     ...        0 min,  0.008 sec ( 19.285%)
 molecular gradient             ...        0 min,  0.027 sec ( 64.215%)
 printout                       ...        0 min,  0.000 sec (  0.907%)

         :::::::::::::::::::::::::::::::::::::::::::::::::::::
         ::                     SUMMARY                     ::
         :::::::::::::::::::::::::::::::::::::::::::::::::::::
         :: total energy             -82.314289891048 Eh    ::
         :: gradient norm              0.000943207926 Eh/a0 ::
         :: HOMO-LUMO gap              3.267708593357 eV    ::
         ::.................................................::
         :: SCC energy               -83.396172593531 Eh    ::
         :: -> isotropic ES            0.147255587613 Eh    ::
         :: -> anisotropic ES          0.012130242949 Eh    ::
         :: -> anisotropic XC          0.026602516319 Eh    ::
         :: -> dispersion             -0.061551409801 Eh    ::
         :: repulsion energy           1.081094018396 Eh    ::
         :: add. restraining           0.000078024276 Eh    ::
         :: total charge              -0.000000000000 e     ::
         :::::::::::::::::::::::::::::::::::::::::::::::::::::

           -------------------------------------------------
          |                Property Printout                |
           -------------------------------------------------

    * Orbital Energies and Occupations

         #    Occupation            Energy/Eh            Energy/eV
      -------------------------------------------------------------
         1        2.0000           -0.6877521             -18.7147
       ...           ...                  ...                  ...
        63        2.0000           -0.4368421             -11.8871
        64        2.0000           -0.4324799             -11.7684
        65        2.0000           -0.4288448             -11.6695
        66        2.0000           -0.4197527             -11.4221
        67        2.0000           -0.4194731             -11.4144
        68        2.0000           -0.4133925             -11.2490
        69        2.0000           -0.4070559             -11.0766
        70        2.0000           -0.3976575             -10.8208
        71        2.0000           -0.3966884             -10.7944
        72        2.0000           -0.3956230             -10.7654
        73        2.0000           -0.3847541             -10.4697
        74        2.0000           -0.3571473              -9.7185
        75        2.0000           -0.3432851              -9.3413 (HOMO)
        76                         -0.2231991              -6.0736 (LUMO)
        77                         -0.2114350              -5.7534
        78                         -0.1852794              -5.0417
        79                         -0.1027401              -2.7957
        80                         -0.0924688              -2.5162
        81                         -0.0049287              -0.1341
        82                          0.0088753               0.2415
        83                          0.0102044               0.2777
        84                          0.0286913               0.7807
        85                          0.0293822               0.7995
        86                          0.0572500               1.5579
       ...                                ...                  ...
       144                          0.6894483              18.7608
      -------------------------------------------------------------
                  HL-Gap            0.1200861 Eh            3.2677 eV
             Fermi-level           -0.2832421 Eh           -7.7074 eV

     #   Z          covCN         q      C6AA      α(0)
     1   6 C        3.755    -0.117    22.793     6.807
     2   6 C        3.858     0.129    18.454     6.109
     3   8 O        1.638    -0.372    20.325     6.086
     4   6 C        3.755    -0.116    22.774     6.805
     5   6 C        3.858     0.129    18.451     6.109
     6   6 C        3.755    -0.117    22.803     6.809
     7   6 C        3.755    -0.116    22.773     6.804
     8   8 O        1.638    -0.373    20.351     6.089
     9   5 B        2.659     0.432    15.561     6.641
    10   6 C        3.045    -0.079    29.923     8.972
    11   6 C        2.895    -0.039    28.974     8.825
    12   6 C        3.848    -0.014    20.798     6.487
    13   1 H        0.925     0.031     2.576     2.510
    14   6 C        3.864    -0.016    20.819     6.489
    15   1 H        0.925     0.043     2.411     2.428
    16   6 C        2.863    -0.084    30.103     8.993
    17   5 B        2.662     0.432    15.550     6.637
    18   8 O        1.638    -0.373    20.344     6.088
    19   6 C        3.860     0.129    18.454     6.109
    20   6 C        3.755    -0.117    22.800     6.808
    21   6 C        3.755    -0.116    22.779     6.805
    22   6 C        3.860     0.129    18.455     6.109
    23   6 C        3.755    -0.116    22.786     6.806
    24   6 C        3.755    -0.118    22.806     6.809
    25   8 O        1.638    -0.370    20.289     6.080
    26   6 C        2.898    -0.028    28.693     8.783
    27   6 C        3.866    -0.014    20.786     6.483
    28   1 H        0.925     0.044     2.391     2.418
    29   6 C        3.072    -0.026    28.586     8.767
    30   6 C        2.889    -0.048    29.187     8.857
    31   6 C        3.850    -0.012    20.757     6.480
    32   1 H        0.925     0.030     2.579     2.512
    33   1 H        0.925     0.054     2.268     2.355
    34   1 H        0.925     0.039     2.458     2.452
    35   1 H        0.925     0.051     2.303     2.373
    36   1 H        0.925     0.052     2.293     2.368
    37   1 H        0.925     0.044     2.402     2.424
    38   1 H        0.925     0.042     2.422     2.434
    39   1 H        0.925     0.040     2.451     2.448
    40   1 H        0.925     0.052     2.297     2.370
    41   1 H        0.925     0.054     2.269     2.356
    42   1 H        0.925     0.042     2.416     2.431
    43   1 H        0.925     0.052     2.296     2.370
    44   1 H        0.925     0.043     2.404     2.425
    45   1 H        0.925     0.034     2.527     2.486
    46   1 H        0.925     0.054     2.269     2.356
    47   1 H        0.925     0.040     2.451     2.448
    48   1 H        0.925     0.052     2.294     2.369
    49   1 H        0.925     0.052     2.296     2.369
    50   1 H        0.925     0.044     2.399     2.422
    51   1 H        0.925     0.043     2.416     2.431
    52   1 H        0.925     0.043     2.412     2.429
    53   1 H        0.925     0.053     2.287     2.365
    54   1 H        0.925     0.044     2.397     2.421
    55   1 H        0.925     0.040     2.449     2.447
    56   1 H        0.925     0.052     2.294     2.368
    57   1 H        0.925     0.055     2.262     2.352
    58   1 H        0.925     0.036     2.496     2.471
    59   1 H        0.925     0.025     2.652     2.547
    60   1 H        0.925     0.022     2.703     2.571

 Mol. C6AA /au·bohr⁶  :      32801.830678
 Mol. C8AA /au·bohr⁸  :     759428.880521
 Mol. α(0) /au        :        273.174006


Wiberg/Mayer (AO) data.
largest (>0.10) Wiberg bond orders for each atom

 ---------------------------------------------------------------------------
     #   Z sym  total        # sym  WBO       # sym  WBO       # sym  WBO
 ---------------------------------------------------------------------------
     1   6 C    3.994 --     2 C    0.997    34 H    0.985    33 H    0.983
                            35 H    0.982
     2   6 C    3.943 --     1 C    0.997     4 C    0.991     3 O    0.954
                             5 C    0.936
     3   8 O    2.231 --     9 B    1.126     2 C    0.954
     4   6 C    3.994 --     2 C    0.991    38 H    0.984    37 H    0.984
                            36 H    0.983
     5   6 C    3.942 --     6 C    0.996     7 C    0.991     8 O    0.953
                             2 C    0.936
     6   6 C    3.994 --     5 C    0.996    39 H    0.985    41 H    0.983
                            40 H    0.982
     7   6 C    3.995 --     5 C    0.991    42 H    0.984    44 H    0.984
                            43 H    0.983
     8   8 O    2.230 --     9 B    1.127     5 C    0.953
     9   5 B    3.378 --     8 O    1.127     3 O    1.126    10 C    1.004
    10   6 C    3.969 --    11 C    1.707     9 B    1.004    27 C    0.949
                            29 C    0.109
    11   6 C    3.989 --    10 C    1.707    12 C    1.148    45 H    0.964
    12   6 C    3.947 --    11 C    1.148    13 H    0.973    14 C    0.910
                            31 C    0.781
    13   1 H    0.999 --    12 C    0.973
    14   6 C    3.955 --    16 C    1.034    15 H    0.969    31 C    0.927
                            12 C    0.910
    15   1 H    0.998 --    14 C    0.969
    16   6 C    3.978 --    26 C    1.827    14 C    1.034    17 B    0.997
    17   5 B    3.375 --    25 O    1.133    18 O    1.128    16 C    0.997
    18   8 O    2.232 --    17 B    1.128    19 C    0.952
    19   6 C    3.943 --    20 C    0.997    21 C    0.991    18 O    0.952
                            22 C    0.936
    20   6 C    3.994 --    19 C    0.997    47 H    0.984    46 H    0.983
                            48 H    0.982
    21   6 C    3.994 --    19 C    0.991    51 H    0.984    50 H    0.984
                            49 H    0.983
    22   6 C    3.942 --    24 C    0.996    23 C    0.991    25 O    0.953
                            19 C    0.936
    23   6 C    3.995 --    22 C    0.991    52 H    0.984    54 H    0.984
                            53 H    0.983
    24   6 C    3.994 --    22 C    0.996    55 H    0.984    57 H    0.983
                            56 H    0.982
    25   8 O    2.236 --    17 B    1.133    22 C    0.953
    26   6 C    3.987 --    16 C    1.827    27 C    1.006    58 H    0.967
    27   6 C    3.991 --    26 C    1.006    29 C    0.974    28 H    0.969
                            10 C    0.949
    28   1 H    0.998 --    27 C    0.969
    29   6 C    3.983 --    30 C    1.778    27 C    0.974    59 H    0.969
                            10 C    0.109
    30   6 C    3.988 --    29 C    1.778    31 C    1.126    60 H    0.966
    31   6 C    3.942 --    30 C    1.126    32 H    0.973    14 C    0.927
                            12 C    0.781
    32   1 H    0.999 --    31 C    0.973
    33   1 H    0.997 --     1 C    0.983
    34   1 H    0.998 --     1 C    0.985
    35   1 H    0.997 --     1 C    0.982
    36   1 H    0.997 --     4 C    0.983
    37   1 H    0.998 --     4 C    0.984
    38   1 H    0.998 --     4 C    0.984
    39   1 H    0.998 --     6 C    0.985
    40   1 H    0.997 --     6 C    0.982
    41   1 H    0.997 --     6 C    0.983
    42   1 H    0.998 --     7 C    0.984
    43   1 H    0.997 --     7 C    0.983
    44   1 H    0.998 --     7 C    0.984
    45   1 H    0.999 --    11 C    0.964
    46   1 H    0.997 --    20 C    0.983
    47   1 H    0.998 --    20 C    0.984
    48   1 H    0.997 --    20 C    0.982
    49   1 H    0.997 --    21 C    0.983
    50   1 H    0.998 --    21 C    0.984
    51   1 H    0.998 --    21 C    0.984
    52   1 H    0.998 --    23 C    0.984
    53   1 H    0.997 --    23 C    0.983
    54   1 H    0.998 --    23 C    0.984
    55   1 H    0.998 --    24 C    0.984
    56   1 H    0.997 --    24 C    0.982
    57   1 H    0.997 --    24 C    0.983
    58   1 H    0.999 --    26 C    0.967
    59   1 H    0.999 --    29 C    0.969
    60   1 H    0.999 --    30 C    0.966
 ---------------------------------------------------------------------------

Topologies differ in total number of bonds
Writing topology from bond orders to xtbtopo.mol

molecular dipole:
                 x           y           z       tot (Debye)
 q only:       -0.227      -0.482       0.192
   full:       -0.140      -0.574       0.167       1.560
molecular quadrupole (traceless):
                xx          xy          yy          xz          yz          zz
 q only:      -51.651      17.088      52.544     -24.139     -39.954      -0.893
  q+dip:      -55.643       9.674      62.798     -18.349     -41.057      -7.155
   full:      -56.601       8.411      64.479     -19.948     -42.258      -7.878

           -------------------------------------------------
          |                Geometry Summary                 |
           -------------------------------------------------

      molecular mass/u    :      382.1099696
   center of mass at/Å    :        2.9582882     -35.9061637      21.8257595
  moments of inertia/u·Å² :        0.1323561E+04   0.6563652E+04   0.6973864E+04
rotational constants/cm⁻¹ :        0.1273657E-01   0.2568331E-02   0.2417259E-02

 * 59 selected distances

     #   Z          #   Z                                           value/Å
     1   6 C        2   6 C                                       1.5271873
     2   6 C        3   8 O                                       1.4260413
     2   6 C        4   6 C                                       1.5340456
     5   6 C        6   6 C                                       1.5272704
     5   6 C        7   6 C                                       1.5339649
     5   6 C        8   8 O                                       1.4271302
     3   8 O        9   5 B                                       1.3680537
     8   8 O        9   5 B                                       1.3674813
     9   5 B       10   6 C                                       1.5587659
    10   6 C       11   6 C                                       1.3518941
    11   6 C       12   6 C                                       1.4426626
    12   6 C       13   1 H                                       1.0824103
    12   6 C       14   6 C                                       1.5099577
    14   6 C       15   1 H                                       1.0845769
    14   6 C       16   6 C                                       1.4809171
    16   6 C       17   5 B                                       1.5618006 (max)
    17   5 B       18   8 O                                       1.3679525
    18   8 O       19   6 C                                       1.4270895
    19   6 C       20   6 C                                       1.5267791
    19   6 C       21   6 C                                       1.5339547
    22   6 C       23   6 C                                       1.5338805
    22   6 C       24   6 C                                       1.5270485
    17   5 B       25   8 O                                       1.3659949
    22   6 C       25   8 O                                       1.4272266
    16   6 C       26   6 C                                       1.3351889
    27   6 C       28   1 H                                       1.0900818
    27   6 C       29   6 C                                       1.4858365
    29   6 C       30   6 C                                       1.3386393
    14   6 C       31   6 C                                       1.5031410
    30   6 C       31   6 C                                       1.4478249
    31   6 C       32   1 H                                       1.0826993
     1   6 C       33   1 H                                       1.0872424
     1   6 C       34   1 H                                       1.0866011
     1   6 C       35   1 H                                       1.0851247
     4   6 C       36   1 H                                       1.0877782
     4   6 C       37   1 H                                       1.0870670
     4   6 C       38   1 H                                       1.0857784
     6   6 C       39   1 H                                       1.0866063
     6   6 C       40   1 H                                       1.0850843
     6   6 C       41   1 H                                       1.0871652
     7   6 C       42   1 H                                       1.0858410
     7   6 C       43   1 H                                       1.0876193
     7   6 C       44   1 H                                       1.0870115
    11   6 C       45   1 H                                       1.0827894
    20   6 C       46   1 H                                       1.0872203
    20   6 C       47   1 H                                       1.0866220
    20   6 C       48   1 H                                       1.0850621
    21   6 C       49   1 H                                       1.0876774
    21   6 C       50   1 H                                       1.0870478
    21   6 C       51   1 H                                       1.0857817
    23   6 C       52   1 H                                       1.0858300
    23   6 C       53   1 H                                       1.0875085
    23   6 C       54   1 H                                       1.0870188
    24   6 C       55   1 H                                       1.0866346
    24   6 C       56   1 H                                       1.0851278
    24   6 C       57   1 H                                       1.0871486
    26   6 C       58   1 H                                       1.0813274 (min)
    29   6 C       59   1 H                                       1.0826523
    30   6 C       60   1 H                                       1.0831116

 * 5 distinct bonds (by element types)

   Z      Z             #   av. dist./Å        max./Å        min./Å
   1 H    6 C          32     1.0858515     1.0900818     1.0813274
   5 B    6 C           2     1.5602832     1.5618006     1.5587659
   6 C    6 C          17     1.4788349     1.5340456     1.3351889
   5 B    8 O           4     1.3673706     1.3680537     1.3659949
   6 C    8 O           4     1.4268719     1.4272266     1.4260413


optimized geometry written to: xtbopt.xyz


           -------------------------------------------------
          | TOTAL ENERGY              -82.314289891048 Eh   |
          | GRADIENT NORM               0.000943207926 Eh/α |
          | HOMO-LUMO GAP               3.267708593357 eV   |
           -------------------------------------------------

------------------------------------------------------------------------
 * finished run on 2022/07/09 at 18:33:01.898     
------------------------------------------------------------------------
 total:
 * wall-time:     0 d,  0 h,  0 min,  2.510 sec
 *  cpu-time:     0 d,  0 h,  0 min,  2.508 sec
 * ratio c/w:     0.999 speedup
 SCF:
 * wall-time:     0 d,  0 h,  0 min,  0.069 sec
 *  cpu-time:     0 d,  0 h,  0 min,  0.069 sec
 * ratio c/w:     0.999 speedup
 ANC optimizer:
 * wall-time:     0 d,  0 h,  0 min,  2.429 sec
 *  cpu-time:     0 d,  0 h,  0 min,  2.427 sec
 * ratio c/w:     0.999 speedup

