      -----------------------------------------------------------      
     |                   =====================                   |     
     |                           x T B                           |     
     |                   =====================                   |     
     |                         S. Grimme                         |     
     |          Mulliken Center for Theoretical Chemistry        |     
     |                    University of Bonn                     |     
      -----------------------------------------------------------      

   * xtb version 6.5.0 (homebrew) compiled by 'nhattrup@GPGGRP-SHANNON.CHEME.CMU.EDU' on 

   xtb is free software: you can redistribute it and/or modify it under
   the terms of the GNU Lesser General Public License as published by
   the Free Software Foundation, either version 3 of the License, or
   (at your option) any later version.
   
   xtb is distributed in the hope that it will be useful,
   but WITHOUT ANY WARRANTY; without even the implied warranty of
   MERCHANTABILITY or FITNESS FOR A PARTICULAR PURPOSE.  See the
   GNU Lesser General Public License for more details.
   
   Cite this work as:
   * C. Bannwarth, E. Caldeweyher, S. Ehlert, A. Hansen, P. Pracht,
     J. Seibert, S. Spicher, S. Grimme, WIREs Comput. Mol. Sci., 2020, 11,
     e01493. DOI: 10.1002/wcms.1493
   
   for GFN2-xTB:
   * C. Bannwarth, S. Ehlert and S. Grimme., J. Chem. Theory Comput., 2019,
     15, 1652-1671. DOI: 10.1021/acs.jctc.8b01176
   for GFN1-xTB:
   * S. Grimme, C. Bannwarth, P. Shushkov, J. Chem. Theory Comput., 2017,
     13, 1989-2009. DOI: 10.1021/acs.jctc.7b00118
   for GFN0-xTB:
   * P. Pracht, E. Caldeweyher, S. Ehlert, S. Grimme, ChemRxiv, 2019, preprint.
     DOI: 10.26434/chemrxiv.8326202.v1
   for GFN-FF:
   * S. Spicher and S. Grimme, Angew. Chem. Int. Ed., 2020, 59, 15665-15673.
     DOI: 10.1002/anie.202004239
   
   for ALPB and GBSA implicit solvation:
   * S. Ehlert, M. Stahn, S. Spicher, S. Grimme, J. Chem. Theory Comput.,
     2021, 17, 4250-4261. DOI: 10.1021/acs.jctc.1c00471
   
   for DFT-D4:
   * E. Caldeweyher, C. Bannwarth and S. Grimme, J. Chem. Phys., 2017,
     147, 034112. DOI: 10.1063/1.4993215
   * E. Caldeweyher, S. Ehlert, A. Hansen, H. Neugebauer, S. Spicher,
     C. Bannwarth and S. Grimme, J. Chem. Phys., 2019, 150, 154122.
     DOI: 10.1063/1.5090222
   * E. Caldeweyher, J.-M. Mewes, S. Ehlert and S. Grimme, Phys. Chem. Chem. Phys.
     2020, 22, 8499-8512. DOI: 10.1039/D0CP00502A
   
   for sTDA-xTB:
   * S. Grimme and C. Bannwarth, J. Chem. Phys., 2016, 145, 054103.
     DOI: 10.1063/1.4959605
   
   in the mass-spec context:
   * V. Asgeirsson, C. Bauer and S. Grimme, Chem. Sci., 2017, 8, 4879.
     DOI: 10.1039/c7sc00601b
   * J. Koopman and S. Grimme, ACS Omega 2019, 4, 12, 15120-15133.
     DOI: 10.1021/acsomega.9b02011
   
   for metadynamics refer to:
   * S. Grimme, J. Chem. Theory Comput., 2019, 155, 2847-2862
     DOI: 10.1021/acs.jctc.9b00143
   
   for SPH calculations refer to:
   * S. Spicher and S. Grimme, J. Chem. Theory Comput., 2021, 17, 1701-1714
     DOI: 10.1021/acs.jctc.0c01306
   
   with help from (in alphabetical order)
   P. Atkinson, C. Bannwarth, F. Bohle, G. Brandenburg, E. Caldeweyher
   M. Checinski, S. Dohm, S. Ehlert, S. Ehrlich, I. Gerasimov, C. Hölzer
   A. Katbashev, J. Koopman, C. Lavigne, S. Lehtola, F. März, M. Müller,
   F. Musil, H. Neugebauer, J. Pisarek, C. Plett, P. Pracht, F. Pultar,
   J. Seibert, P. Shushkov, S. Spicher, M. Stahn, M. Steiner, T. Strunk,
   J. Stückrath, T. Rose, and J. Unsleber
   
 * started run on 2022/07/09 at 18:33:36.791     

           -------------------------------------------------
          |                Calculation Setup                |
           -------------------------------------------------

          program call               : /opt/homebrew/bin/xtb bvl_bpin2_scan_5-8_xtb.xyz --chrg 0 --uhf 0 --opt --input xcontrol_bvl_bpin2_scan_5-8_xtb
          coordinate file            : bvl_bpin2_scan_5-8_xtb.xyz
          omp threads                :                     1

   ID    Z sym.   atoms
    1    6 C      1, 2, 4-7, 10-12, 14, 16, 19-24, 26, 27, 29-31
    2    8 O      3, 8, 18, 25
    3    5 B      9, 17
    4    1 H      13, 15, 28, 32-60
constraining bond 12 31 to    2.0556000 Å, actual value:    1.9466405 Å
constraining bond 10 29 to    1.6111000 Å, actual value:    1.7205456 Å

           -------------------------------------------------
          |                 G F N 2 - x T B                 |
           -------------------------------------------------

        Reference                      10.1021/acs.jctc.8b01176
      * Hamiltonian:
        H0-scaling (s, p, d)           1.850000    2.230000    2.230000
        zeta-weighting                 0.500000
      * Dispersion:
        s8                             2.700000
        a1                             0.520000
        a2                             5.000000
        s9                             5.000000
      * Repulsion:
        kExp                           1.500000    1.000000
        rExp                           1.000000
      * Coulomb:
        alpha                          2.000000
        third order                    shell-resolved
        anisotropic                    true
        a3                             3.000000
        a5                             4.000000
        cn-shift                       1.200000
        cn-exp                         4.000000
        max-rad                        5.000000


          ...................................................
          :                      SETUP                      :
          :.................................................:
          :  # basis functions                 144          :
          :  # atomic orbitals                 144          :
          :  # shells                           88          :
          :  # electrons                       150          :
          :  max. iterations                   250          :
          :  Hamiltonian                  GFN2-xTB          :
          :  restarted?                      false          :
          :  GBSA solvation                  false          :
          :  PC potential                    false          :
          :  electronic temp.          300.0000000     K    :
          :  accuracy                    1.0000000          :
          :  -> integral cutoff          0.2500000E+02      :
          :  -> integral neglect         0.1000000E-07      :
          :  -> SCF convergence          0.1000000E-05 Eh   :
          :  -> wf. convergence          0.1000000E-03 e    :
          :  Broyden damping             0.4000000          :
          ...................................................

 iter      E             dE          RMSdq      gap      omega  full diag
   1    -82.9447689 -0.829448E+02  0.468E+00    3.28       0.0  T
   2    -83.3337923 -0.389023E+00  0.287E+00    2.74       1.0  T
   3    -83.3481025 -0.143102E-01  0.137E+00    3.10       1.0  T
   4    -83.3706111 -0.225086E-01  0.404E-01    2.91       1.0  T
   5    -83.3814447 -0.108336E-01  0.145E-01    2.99       1.0  T
   6    -83.3814020  0.426972E-04  0.828E-02    2.98       1.0  T
   7    -83.3815792 -0.177180E-03  0.219E-02    2.98       1.0  T
   8    -83.3815917 -0.124963E-04  0.727E-03    2.98       1.8  T
   9    -83.3815926 -0.940421E-06  0.342E-03    2.98       3.8  T
  10    -83.3815926 -0.188235E-07  0.161E-03    2.98       8.0  T
  11    -83.3815927 -0.118892E-06  0.487E-04    2.98      26.5  T
  12    -83.3815927 -0.679371E-08  0.225E-04    2.98      57.3  T

   *** convergence criteria satisfied after 12 iterations ***

         #    Occupation            Energy/Eh            Energy/eV
      -------------------------------------------------------------
         1        2.0000           -0.6918838             -18.8271
       ...           ...                  ...                  ...
        69        2.0000           -0.4063523             -11.0574
        70        2.0000           -0.4003977             -10.8954
        71        2.0000           -0.3973332             -10.8120
        72        2.0000           -0.3952676             -10.7558
        73        2.0000           -0.3811302             -10.3711
        74        2.0000           -0.3612579              -9.8303
        75        2.0000           -0.3344350              -9.1004 (HOMO)
        76                         -0.2248693              -6.1190 (LUMO)
        77                         -0.2018930              -5.4938
        78                         -0.1693709              -4.6088
        79                         -0.1275764              -3.4715
        80                         -0.0957343              -2.6051
       ...                                ...                  ...
       144                          0.6946546              18.9025
      -------------------------------------------------------------
                  HL-Gap            0.1095656 Eh            2.9814 eV
             Fermi-level           -0.2796521 Eh           -7.6097 eV

 SCC (total)                   0 d,  0 h,  0 min,  0.068 sec
 SCC setup                      ...        0 min,  0.000 sec (  0.367%)
 Dispersion                     ...        0 min,  0.000 sec (  0.630%)
 classical contributions        ...        0 min,  0.000 sec (  0.270%)
 integral evaluation            ...        0 min,  0.006 sec (  9.166%)
 iterations                     ...        0 min,  0.033 sec ( 48.401%)
 molecular gradient             ...        0 min,  0.028 sec ( 40.643%)
 printout                       ...        0 min,  0.000 sec (  0.514%)

         :::::::::::::::::::::::::::::::::::::::::::::::::::::
         ::                     SUMMARY                     ::
         :::::::::::::::::::::::::::::::::::::::::::::::::::::
         :: total energy             -82.132416905475 Eh    ::
         :: gradient norm              1.680103875856 Eh/a0 ::
         :: HOMO-LUMO gap              2.981432830383 eV    ::
         ::.................................................::
         :: SCC energy               -83.381592742726 Eh    ::
         :: -> isotropic ES            0.148297957852 Eh    ::
         :: -> anisotropic ES          0.011048602059 Eh    ::
         :: -> anisotropic XC          0.026307910391 Eh    ::
         :: -> dispersion             -0.061216852480 Eh    ::
         :: repulsion energy           1.078196710010 Eh    ::
         :: add. restraining           0.170343388561 Eh    ::
         :: total charge              -0.000000000000 e     ::
         :::::::::::::::::::::::::::::::::::::::::::::::::::::

      ----------------------------------------------------------- 
     |                   =====================                   |
     |                        A N C O P T                        |
     |                   =====================                   |
     |               Approximate Normal Coordinate               |
     |                Rational Function Optimizer                |
      ----------------------------------------------------------- 

          ...................................................
          :                      SETUP                      :
          :.................................................:
          :   optimization level            normal          :
          :   max. optcycles                   200          :
          :   ANC micro-cycles                  20          :
          :   degrees of freedom               174          :
          :.................................................:
          :   RF solver                   davidson          :
          :   write xtbopt.log                true          :
          :   linear?                        false          :
          :   energy convergence         0.5000000E-05 Eh   :
          :   grad. convergence          0.1000000E-02 Eh/α :
          :   maximium RF displ.         1.0000000          :
          :   Hlow (freq-cutoff)         0.1000000E-01      :
          :   Hmax (freq-cutoff)         5.0000000          :
          :   S6 in model hess.         20.0000000          :
          ...................................................

generating ANC from model Hessian ...
Using Lindh-Hessian (1995)
 Shifting diagonal of input Hessian by   0.19740887711450261     
 Lowest  eigenvalues of input Hessian
    0.010000    0.139651    0.000000    0.000000    0.000000    0.000000
    0.000000    0.000000    0.197531    0.197553    0.197704    0.199090
    0.199289    0.200280    0.200709    0.200793    0.202066    0.202555
 Highest eigenvalues
    1.917600    2.039135    2.120315    2.164409    8.958220    9.122481


........................................................................
.............................. CYCLE    1 ..............................
........................................................................
   1    -83.3815927 -0.833816E+02  0.998E-05    2.98       0.0  T
   2    -83.3815927 -0.455373E-09  0.658E-05    2.98     196.1  T
   3    -83.3815927 -0.195271E-09  0.273E-05    2.98     472.6  T
     SCC iter.                  ...        0 min,  0.008 sec
     gradient                   ...        0 min,  0.027 sec
 * total energy  :   -82.1324169 Eh     change       -0.1142425E-08 Eh
   gradient norm :     1.6801039 Eh/α   predicted     0.0000000E+00 (-100.00%)
   displ. norm   :     0.3107623 α      lambda       -0.5164185E+00
   maximum displ.:     0.2489775 α      in ANC's #174, #173, #127, ...

........................................................................
.............................. CYCLE    2 ..............................
........................................................................
   1    -83.3889094 -0.833889E+02  0.355E-01    3.14       0.0  T
   2    -83.3889735 -0.640956E-04  0.283E-01    3.15       1.0  T
   3    -83.3900071 -0.103360E-02  0.153E-01    3.14       1.0  T
   4    -83.3904132 -0.406115E-03  0.326E-02    3.14       1.0  T
   5    -83.3904685 -0.553256E-04  0.657E-03    3.14       2.0  T
   6    -83.3904695 -0.101733E-05  0.342E-03    3.14       3.8  T
   7    -83.3904697 -0.184139E-06  0.891E-04    3.14      14.5  T
   8    -83.3904697 -0.144261E-08  0.344E-04    3.14      37.5  T
     SCC iter.                  ...        0 min,  0.021 sec
     gradient                   ...        0 min,  0.027 sec
 * total energy  :   -82.2638852 Eh     change       -0.1314683E+00 Eh
   gradient norm :     0.8475946 Eh/α   predicted    -0.2831944E+00 ( 115.41%)
   displ. norm   :     0.1057446 α      lambda       -0.8651504E-01
   maximum displ.:     0.0816897 α      in ANC's #174, #173, #37, ...

........................................................................
.............................. CYCLE    3 ..............................
........................................................................
   1    -83.3881920 -0.833882E+02  0.114E-01    3.08       0.0  T
   2    -83.3882272 -0.352356E-04  0.938E-02    3.08       1.0  T
   3    -83.3883975 -0.170266E-03  0.502E-02    3.09       1.0  T
   4    -83.3884178 -0.203530E-04  0.135E-02    3.09       1.0  T
   5    -83.3884272 -0.931937E-05  0.307E-03    3.09       4.2  T
   6    -83.3884276 -0.407633E-06  0.125E-03    3.09      10.3  T
   7    -83.3884276 -0.175945E-07  0.342E-04    3.09      37.7  T
   8    -83.3884276 -0.462435E-09  0.124E-04    3.09     103.9  T
     SCC iter.                  ...        0 min,  0.021 sec
     gradient                   ...        0 min,  0.027 sec
 * total energy  :   -82.3077518 Eh     change       -0.4386660E-01 Eh
   gradient norm :     0.0316097 Eh/α   predicted    -0.4374117E-01 (  -0.29%)
   displ. norm   :     0.0397229 α      lambda       -0.8981205E-03
   maximum displ.:     0.0214920 α      in ANC's #37, #36, #109, ...

........................................................................
.............................. CYCLE    4 ..............................
........................................................................
   1    -83.3886424 -0.833886E+02  0.271E-02    3.09       0.0  T
   2    -83.3886460 -0.367586E-05  0.177E-02    3.09       1.0  T
   3    -83.3886449  0.112456E-05  0.121E-02    3.09       1.1  T
   4    -83.3886499 -0.502846E-05  0.283E-03    3.09       4.6  T
   5    -83.3886503 -0.351183E-06  0.866E-04    3.09      14.9  T
   6    -83.3886503 -0.368005E-07  0.267E-04    3.09      48.3  T
     SCC iter.                  ...        0 min,  0.016 sec
     gradient                   ...        0 min,  0.027 sec
 * total energy  :   -82.3084682 Eh     change       -0.7164679E-03 Eh
   gradient norm :     0.0190102 Eh/α   predicted    -0.4497523E-03 ( -37.23%)
   displ. norm   :     0.1398791 α      lambda       -0.1341766E-02
   maximum displ.:     0.0981524 α      in ANC's #1, #37, #36, ...

........................................................................
.............................. CYCLE    5 ..............................
........................................................................
   1    -83.3884437 -0.833884E+02  0.835E-02    3.10       0.0  T
   2    -83.3884578 -0.140770E-04  0.511E-02    3.11       1.0  T
   3    -83.3884164  0.413856E-04  0.316E-02    3.11       1.0  T
   4    -83.3884679 -0.515099E-04  0.571E-03    3.11       2.3  T
   5    -83.3884695 -0.161311E-05  0.172E-03    3.11       7.5  T
   6    -83.3884696 -0.114203E-06  0.712E-04    3.11      18.1  T
   7    -83.3884696 -0.799672E-08  0.248E-04    3.11      52.0  T
     SCC iter.                  ...        0 min,  0.018 sec
     gradient                   ...        0 min,  0.027 sec
 * total energy  :   -82.3086027 Eh     change       -0.1344108E-03 Eh
   gradient norm :     0.0265104 Eh/α   predicted    -0.6840414E-03 ( 408.92%)
   displ. norm   :     0.3409437 α      lambda       -0.3172110E-02
   maximum displ.:     0.2881164 α      in ANC's #1, #37, #36, ...

........................................................................
.............................. CYCLE    6 ..............................
........................................................................
   1    -83.3859113 -0.833859E+02  0.200E-01    3.11       0.0  T
   2    -83.3859568 -0.455744E-04  0.120E-01    3.11       1.0  T
   3    -83.3857853  0.171502E-03  0.680E-02    3.12       1.0  T
   4    -83.3859950 -0.209672E-03  0.876E-03    3.11       1.5  T
   5    -83.3859985 -0.344800E-05  0.330E-03    3.12       3.9  T
   6    -83.3859988 -0.342926E-06  0.167E-03    3.12       7.7  T
   7    -83.3859989 -0.624608E-07  0.463E-04    3.12      27.9  T
   8    -83.3859989 -0.323479E-08  0.174E-04    3.12      74.3  T
     SCC iter.                  ...        0 min,  0.021 sec
     gradient                   ...        0 min,  0.027 sec
 * total energy  :   -82.3052806 Eh     change        0.3322038E-02 Eh
   gradient norm :     0.0942083 Eh/α   predicted    -0.1771055E-02 (-153.31%)
   displ. norm   :     0.2227828 α      lambda       -0.8224281E-02
   maximum displ.:     0.1747849 α      in ANC's #1, #37, #36, ...

........................................................................
.............................. CYCLE    7 ..............................
........................................................................
   1    -83.3897548 -0.833898E+02  0.135E-01    3.11       0.0  T
   2    -83.3897897 -0.349223E-04  0.815E-02    3.10       1.0  T
   3    -83.3897129  0.767960E-04  0.447E-02    3.10       1.0  T
   4    -83.3898071 -0.941364E-04  0.800E-03    3.10       1.6  T
   5    -83.3898102 -0.306467E-05  0.249E-03    3.10       5.2  T
   6    -83.3898104 -0.204519E-06  0.124E-03    3.10      10.5  T
   7    -83.3898104 -0.365911E-07  0.392E-04    3.10      32.9  T
   8    -83.3898104 -0.160267E-08  0.113E-04    3.10     114.4  T
     SCC iter.                  ...        0 min,  0.021 sec
     gradient                   ...        0 min,  0.027 sec
 * total energy  :   -82.3092845 Eh     change       -0.4003886E-02 Eh
   gradient norm :     0.0320074 Eh/α   predicted    -0.4316727E-02 (   7.81%)
   displ. norm   :     0.0238259 α      lambda       -0.2700395E-03
   maximum displ.:     0.0178618 α      in ANC's #1, #37, #28, ...

........................................................................
.............................. CYCLE    8 ..............................
........................................................................
   1    -83.3901427 -0.833901E+02  0.143E-02    3.11       0.0  T
   2    -83.3901433 -0.594464E-06  0.970E-03    3.11       1.3  T
   3    -83.3901436 -0.266029E-06  0.611E-03    3.11       2.1  T
   4    -83.3901446 -0.103244E-05  0.134E-03    3.11       9.6  T
   5    -83.3901447 -0.882644E-07  0.366E-04    3.11      35.2  T
   6    -83.3901447 -0.611847E-08  0.138E-04    3.11      93.7  T
     SCC iter.                  ...        0 min,  0.016 sec
     gradient                   ...        0 min,  0.027 sec
 * total energy  :   -82.3094332 Eh     change       -0.1486545E-03 Eh
   gradient norm :     0.0110684 Eh/α   predicted    -0.1351918E-03 (  -9.06%)
   displ. norm   :     0.0393468 α      lambda       -0.1408644E-03
   maximum displ.:     0.0267552 α      in ANC's #37, #28, #36, ...

........................................................................
.............................. CYCLE    9 ..............................
........................................................................
   1    -83.3904542 -0.833905E+02  0.192E-02    3.11       0.0  T
   2    -83.3904543 -0.866259E-07  0.115E-02    3.11       1.1  T
   3    -83.3904537  0.597281E-06  0.324E-03    3.11       4.0  T
   4    -83.3904543 -0.661916E-06  0.479E-04    3.11      27.0  T
   5    -83.3904544 -0.974988E-08  0.206E-04    3.11      62.6  T
     SCC iter.                  ...        0 min,  0.013 sec
     gradient                   ...        0 min,  0.027 sec
 * total energy  :   -82.3095562 Eh     change       -0.1230148E-03 Eh
   gradient norm :     0.0104553 Eh/α   predicted    -0.7053610E-04 ( -42.66%)
   displ. norm   :     0.1386461 α      lambda       -0.4139427E-03
   maximum displ.:     0.0919310 α      in ANC's #37, #28, #36, ...

........................................................................
.............................. CYCLE   10 ..............................
........................................................................
   1    -83.3912216 -0.833912E+02  0.668E-02    3.12       0.0  T
   2    -83.3912225 -0.954027E-06  0.400E-02    3.12       1.0  T
   3    -83.3912171  0.539974E-05  0.979E-03    3.12       1.3  T
   4    -83.3912232 -0.602027E-05  0.151E-03    3.12       8.5  T
   5    -83.3912233 -0.879477E-07  0.704E-04    3.12      18.3  T
   6    -83.3912233 -0.214963E-08  0.414E-04    3.12      31.2  T
     SCC iter.                  ...        0 min,  0.016 sec
     gradient                   ...        0 min,  0.027 sec
 * total energy  :   -82.3097829 Eh     change       -0.2267616E-03 Eh
   gradient norm :     0.0056478 Eh/α   predicted    -0.2108435E-03 (  -7.02%)
   displ. norm   :     0.0200404 α      lambda       -0.2402246E-04
   maximum displ.:     0.0116806 α      in ANC's #28, #37, #17, ...

........................................................................
.............................. CYCLE   11 ..............................
........................................................................
   1    -83.3916415 -0.833916E+02  0.906E-03    3.12       0.0  T
   2    -83.3916415 -0.164115E-07  0.540E-03    3.12       2.4  T
   3    -83.3916413  0.163261E-06  0.177E-03    3.12       7.3  T
   4    -83.3916415 -0.179455E-06  0.200E-04    3.12      64.6  T
   5    -83.3916415 -0.103196E-08  0.112E-04    3.12     115.6  T
     SCC iter.                  ...        0 min,  0.013 sec
     gradient                   ...        0 min,  0.027 sec
 * total energy  :   -82.3098022 Eh     change       -0.1923314E-04 Eh
   gradient norm :     0.0026489 Eh/α   predicted    -0.1203492E-04 ( -37.43%)
   displ. norm   :     0.0320945 α      lambda       -0.3810832E-04
   maximum displ.:     0.0204631 α      in ANC's #28, #17, #14, ...

........................................................................
.............................. CYCLE   12 ..............................
........................................................................
   1    -83.3925776 -0.833926E+02  0.137E-02    3.12       0.0  T
   2    -83.3925776 -0.878038E-07  0.827E-03    3.12       1.6  T
   3    -83.3925768  0.844189E-06  0.389E-03    3.12       3.3  T
   4    -83.3925777 -0.924180E-06  0.521E-04    3.12      24.8  T
   5    -83.3925777 -0.124678E-07  0.163E-04    3.12      79.1  T
     SCC iter.                  ...        0 min,  0.013 sec
     gradient                   ...        0 min,  0.027 sec
 * total energy  :   -82.3098269 Eh     change       -0.2476788E-04 Eh
   gradient norm :     0.0031614 Eh/α   predicted    -0.1909453E-04 ( -22.91%)
   displ. norm   :     0.0182670 α      lambda       -0.1496098E-04
   maximum displ.:     0.0113972 α      in ANC's #28, #17, #14, ...

........................................................................
.............................. CYCLE   13 ..............................
........................................................................
   1    -83.3930170 -0.833930E+02  0.735E-03    3.12       0.0  T
   2    -83.3930170 -0.318465E-07  0.443E-03    3.12       2.9  T
   3    -83.3930168  0.261190E-06  0.213E-03    3.12       6.1  T
   4    -83.3930171 -0.285863E-06  0.347E-04    3.12      37.2  T
   5    -83.3930171 -0.600230E-08  0.896E-05    3.12     144.0  T
     SCC iter.                  ...        0 min,  0.013 sec
     gradient                   ...        0 min,  0.027 sec
 * total energy  :   -82.3098383 Eh     change       -0.1132903E-04 Eh
   gradient norm :     0.0031607 Eh/α   predicted    -0.7498294E-05 ( -33.81%)
   displ. norm   :     0.0235468 α      lambda       -0.1727681E-04
   maximum displ.:     0.0130764 α      in ANC's #28, #17, #37, ...

........................................................................
.............................. CYCLE   14 ..............................
........................................................................
   1    -83.3932638 -0.833933E+02  0.919E-03    3.11       0.0  T
   2    -83.3932638 -0.374927E-07  0.548E-03    3.11       2.4  T
   3    -83.3932635  0.326519E-06  0.242E-03    3.11       5.3  T
   4    -83.3932639 -0.360767E-06  0.353E-04    3.11      36.6  T
   5    -83.3932639 -0.588139E-08  0.142E-04    3.11      90.9  T
     SCC iter.                  ...        0 min,  0.013 sec
     gradient                   ...        0 min,  0.027 sec
 * total energy  :   -82.3098501 Eh     change       -0.1180804E-04 Eh
   gradient norm :     0.0018679 Eh/α   predicted    -0.8655983E-05 ( -26.69%)
   displ. norm   :     0.0238500 α      lambda       -0.9384556E-05
   maximum displ.:     0.0106798 α      in ANC's #37, #28, #17, ...

........................................................................
.............................. CYCLE   15 ..............................
........................................................................
   1    -83.3930444 -0.833930E+02  0.909E-03    3.11       0.0  T
   2    -83.3930444 -0.437322E-07  0.540E-03    3.11       2.4  T
   3    -83.3930441  0.298559E-06  0.253E-03    3.11       5.1  T
   4    -83.3930445 -0.345043E-06  0.196E-04    3.11      65.9  T
   5    -83.3930445 -0.745544E-09  0.134E-04    3.11      96.4  T
     SCC iter.                  ...        0 min,  0.013 sec
     gradient                   ...        0 min,  0.027 sec
 * total energy  :   -82.3098580 Eh     change       -0.7932100E-05 Eh
   gradient norm :     0.0016293 Eh/α   predicted    -0.4697802E-05 ( -40.77%)
   displ. norm   :     0.0233584 α      lambda        0.5867713E-05
   maximum displ.:     0.0105158 α      in ANC's #37, #28, #17, ...

........................................................................
.............................. CYCLE   16 ..............................
........................................................................
   1    -83.3928111 -0.833928E+02  0.894E-03    3.10       0.0  T
   2    -83.3928111 -0.419579E-07  0.530E-03    3.10       2.4  T
   3    -83.3928108  0.279998E-06  0.245E-03    3.10       5.3  T
   4    -83.3928112 -0.323466E-06  0.189E-04    3.10      68.3  T
   5    -83.3928112 -0.695735E-09  0.125E-04    3.10     103.5  T
     SCC iter.                  ...        0 min,  0.013 sec
     gradient                   ...        0 min,  0.027 sec
 * total energy  :   -82.3098536 Eh     change        0.4412223E-05 Eh
   gradient norm :     0.0036611 Eh/α   predicted     0.2932409E-05 ( -33.54%)
   displ. norm   :     0.0135409 α      lambda       -0.9818701E-05
   maximum displ.:     0.0071024 α      in ANC's #28, #37, #17, ...

........................................................................
.............................. CYCLE   17 ..............................
........................................................................
   1    -83.3927476 -0.833927E+02  0.571E-03    3.11       0.0  T
   2    -83.3927476 -0.165496E-07  0.340E-03    3.11       3.8  T
   3    -83.3927475  0.149520E-06  0.167E-03    3.11       7.7  T
   4    -83.3927477 -0.167924E-06  0.219E-04    3.11      58.8  T
   5    -83.3927477 -0.216529E-08  0.979E-05    3.11     131.9  T
     SCC iter.                  ...        0 min,  0.013 sec
     gradient                   ...        0 min,  0.027 sec
 * total energy  :   -82.3098608 Eh     change       -0.7208327E-05 Eh
   gradient norm :     0.0019292 Eh/α   predicted    -0.4912780E-05 ( -31.85%)
   displ. norm   :     0.0142467 α      lambda       -0.5853875E-05
   maximum displ.:     0.0070179 α      in ANC's #28, #37, #66, ...

........................................................................
.............................. CYCLE   18 ..............................
........................................................................
   1    -83.3926094 -0.833926E+02  0.710E-03    3.11       0.0  T
   2    -83.3926095 -0.285595E-07  0.422E-03    3.11       3.1  T
   3    -83.3926093  0.184599E-06  0.192E-03    3.11       6.7  T
   4    -83.3926095 -0.208056E-06  0.270E-04    3.11      47.9  T
   5    -83.3926095 -0.350116E-08  0.123E-04    3.11     104.7  T
     SCC iter.                  ...        0 min,  0.013 sec
     gradient                   ...        0 min,  0.027 sec
 * total energy  :   -82.3098647 Eh     change       -0.3927139E-05 Eh
   gradient norm :     0.0009138 Eh/α   predicted    -0.2934949E-05 ( -25.26%)
   displ. norm   :     0.0092775 α      lambda       -0.1739432E-05
   maximum displ.:     0.0048800 α      in ANC's #17, #28, #14, ...

   *** GEOMETRY OPTIMIZATION CONVERGED AFTER 18 ITERATIONS ***

------------------------------------------------------------------------
 total energy gain   :        -0.1774478 Eh     -111.3502 kcal/mol
 total RMSD          :         0.0644395 a0        0.0341 Å
 total power (kW/mol):       -25.8827334 (step) -507.6019 (real)
------------------------------------------------------------------------

 ANCopt (total)                0 d,  0 h,  0 min,  0.918 sec
 optimizer setup                ...        0 min,  0.000 sec (  0.008%)
 model hessian                  ...        0 min,  0.032 sec (  3.444%)
 ANC generation                 ...        0 min,  0.003 sec (  0.283%)
 coordinate transformation      ...        0 min,  0.000 sec (  0.026%)
 single point calculation       ...        0 min,  0.877 sec ( 95.584%)
 optimization log               ...        0 min,  0.004 sec (  0.384%)
 hessian update                 ...        0 min,  0.000 sec (  0.042%)
 rational function              ...        0 min,  0.001 sec (  0.154%)

================
 final structure:
================
60
 xtb: 6.5.0 (homebrew)
C            3.47895366369838      -37.74273227221303       15.89021976396170
C            3.72600306774402      -38.12583353376817       17.34720165545912
O            3.26320568553638      -37.07651284533811       18.19832895190020
C            2.89981854948363      -39.37243628931874       17.68734439107610
C            5.23852940048139      -38.26700073494393       17.75076026311184
C            5.74987485275261      -39.70233966988363       17.84276202079614
C            6.17525794498429      -37.45593770806547       16.84703700211791
O            5.28519206599345      -37.66025974897556       19.04390248839658
B            4.15967003591910      -36.90965666474764       19.21767078372183
C            3.90802584786319      -35.95669238550478       20.43387127745407
C            4.93548583913173      -35.91582552991392       21.45834846786665
C            4.95072967616118      -35.14168297082942       22.55721902674109
H            5.85986107203401      -35.13689165260384       23.14793460296803
C            3.83852210321944      -34.30492296625000       23.07947728418047
H            4.07060267107146      -33.91460496460816       24.06975578509971
C            2.46409514237774      -34.91334817963015       23.12016129500545
B            1.71343878822575      -34.90935247763994       24.48624217547162
O            2.21843274213254      -34.37041994451489       25.63840746452346
C            1.35305804430738      -34.70697688309139       26.72143256705505
C            1.20490357600623      -33.50428030117505       27.65054772207277
C            2.02595404718908      -35.85335145604216       27.48746315584939
C            0.03094818771330      -35.15153436078472       25.99642685777660
C           -0.99414311106273      -34.01673900081270       25.87328450724875
C           -0.65466065262099      -36.37434389256678       26.60273535923081
O            0.47450617996875      -35.45849491525698       24.67555209983451
C            1.89577531478390      -35.47516878789656       22.04999582109928
C            2.45250862912925      -35.58869529506851       20.69940056378589
H            1.77679197066248      -36.07708246428547       20.00597224829148
C            3.28158604380373      -34.52321626908211       20.05203431137900
C            3.84942852915858      -33.37838220469318       20.71979633159824
C            4.16778282635136      -33.31312155784538       22.02539985488489
H            4.71292892251731      -32.43777449363005       22.36006490297093
H            2.40686961814124      -37.68392774853331       15.71923643732495
H            3.90025204762897      -38.49377661163098       15.22770530150655
H            3.90955697925129      -36.77359566024830       15.66010230645474
H            1.84736525594714      -39.14049212350112       17.54067786458780
H            3.04162548538442      -39.64438674495860       18.73033689995500
H            3.16969168325347      -40.20802203805393       17.04870261330959
H            5.63626090692327      -40.20331268773115       16.88521225885250
H            5.22099202108124      -40.25916041852631       18.60928976945981
H            6.80406944177591      -39.68383664086948       18.10747717160825
H            6.22369267718774      -37.88106713297709       15.84912730523089
H            7.17044937956469      -37.46551726972820       17.28545606822386
H            5.84359607000906      -36.42205477278172       16.79208607660534
H            5.83849820988676      -36.44969773039673       21.19271874196737
H            2.16790591173273      -33.29200585017571       28.10837147007618
H            0.48377913638493      -33.72182360423023       28.43389668322654
H            0.89072970573625      -32.62149484357502       27.10326860259946
H            3.00816836287913      -35.52015758672968       27.81487607657283
H            2.16348283048458      -36.71113820070148       26.83389058585659
H            1.44246753556759      -36.14160892635124       28.35669265151746
H           -1.40668245116962      -33.75407856269246       26.84287415292416
H           -1.80049070761748      -34.34995205039174       25.22396193449995
H           -0.53631825384163      -33.14260881582948       25.41738743761722
H           -0.91778598365561      -36.18113974725420       27.63928705680975
H           -0.01745312775277      -37.25080639578090       26.54697697405665
H           -1.56278195747390      -36.58245577640368       26.04244969418535
H            0.90982621433527      -35.90386838354858       22.17409163689739
H            3.11060310152845      -34.39922292788594       18.99033487790910
H            4.20230225010898      -32.59016832753229       20.06649034723516

 Bond Distances (Angstroems)
 ---------------------------
C1-C2=1.5266         C1-H33=1.0872        C1-H34=1.0865        C1-H35=1.0852        C2-C1=1.5266         C2-O3=1.4282         
C2-C4=1.5337         C2-C5=1.5718         O3-C2=1.4282         O3-B9=1.3677         C4-C2=1.5337         C4-H36=1.0876        
C4-H37=1.0872        C4-H38=1.0858        C5-C2=1.5718         C5-C6=1.5265         C5-C7=1.5336         C5-O8=1.4292         
C6-C5=1.5265         C6-H39=1.0866        C6-H40=1.0850        C6-H41=1.0871        C7-C5=1.5336         C7-H42=1.0858        
C7-H43=1.0875        C7-H44=1.0872        O8-C5=1.4292         O8-B9=1.3640         B9-O3=1.3677         B9-O8=1.3640         
B9-C10=1.5654        C10-B9=1.5654        C10-C11=1.4515       C10-C27=1.5246       C10-C29=1.6103       C11-C10=1.4515       
C11-C12=1.3443       C11-H45=1.0821       C12-C11=1.3443       C12-H13=1.0842       C12-C14=1.4866       H13-C12=1.0842       
C14-C12=1.4866       C14-H15=1.0894       C14-C16=1.5036       C14-C31=1.4843       H15-C14=1.0894       C16-C14=1.5036       
C16-B17=1.5587       C16-C26=1.3356       B17-C16=1.5587       B17-O18=1.3686       B17-O25=1.3683       O18-B17=1.3686       
O18-C19=1.4266       C19-O18=1.4266       C19-C20=1.5270       C19-C21=1.5342       C19-C22=1.5720       C20-C19=1.5270       
C20-H46=1.0872       C20-H47=1.0867       C20-H48=1.0851       C21-C19=1.5342       C21-H49=1.0876       C21-H50=1.0871       
C21-H51=1.0859       C22-C19=1.5720       C22-C23=1.5342       C22-C24=1.5274       C22-O25=1.4268       C23-C22=1.5342       
C23-H52=1.0859       C23-H53=1.0876       C23-H54=1.0870       C24-C22=1.5274       C24-H55=1.0867       C24-H56=1.0850       
C24-H57=1.0872       O25-B17=1.3683       O25-C22=1.4268       C26-C16=1.3356       C26-C27=1.4652       C26-H58=1.0823       
C27-C10=1.5246       C27-C26=1.4652       C27-H28=1.0844       C27-C29=1.4972       H28-C27=1.0844       C29-C10=1.6103       
C29-C27=1.4972       C29-C30=1.4419       C29-H59=1.0825       C30-C29=1.4419       C30-C31=1.3454       C30-H60=1.0829       
C31-C14=1.4843       C31-C30=1.3454       C31-H32=1.0842       H32-C31=1.0842       H33-C1=1.0872        H34-C1=1.0865        
H35-C1=1.0852        H36-C4=1.0876        H37-C4=1.0872        H38-C4=1.0858        H39-C6=1.0866        H40-C6=1.0850        
H41-C6=1.0871        H42-C7=1.0858        H43-C7=1.0875        H44-C7=1.0872        H45-C11=1.0821       H46-C20=1.0872       
H47-C20=1.0867       H48-C20=1.0851       H49-C21=1.0876       H50-C21=1.0871       H51-C21=1.0859       H52-C23=1.0859       
H53-C23=1.0876       H54-C23=1.0870       H55-C24=1.0867       H56-C24=1.0850       H57-C24=1.0872       H58-C26=1.0823       
H59-C29=1.0825       H60-C30=1.0829       
 C  H  Rav=1.0859 sigma=0.0017  Rmin=1.0821  Rmax=1.0894    32
 C  B  Rav=1.5621 sigma=0.0033  Rmin=1.5587  Rmax=1.5654     2
 C  C  Rav=1.4944 sigma=0.0715  Rmin=1.3356  Rmax=1.6103    22
 O  B  Rav=1.3671 sigma=0.0019  Rmin=1.3640  Rmax=1.3686     4
 O  C  Rav=1.4277 sigma=0.0011  Rmin=1.4266  Rmax=1.4292     4

 selected bond angles (degree)
 --------------------
H33-C1-C2=108.86               H34-C1-C2=110.23               H34-C1-H33=108.90              H35-C1-C2=111.24               
H35-C1-H33=108.04              H35-C1-H34=109.52              O3-C2-C1=109.39                C4-C2-C1=109.17                
C4-C2-O3=106.89                C5-C2-C1=115.04                C5-C2-O3=102.99                C5-C2-C4=112.86                
B9-O3-C2=108.75                H36-C4-C2=108.54               H37-C4-C2=110.23               H37-C4-H36=108.00              
H38-C4-C2=111.17               H38-C4-H36=108.98              H38-C4-H37=109.84              C6-C5-C2=114.98                
C7-C5-C2=112.89                C7-C5-C6=109.16                O8-C5-C2=103.04                O8-C5-C6=109.49                
O8-C5-C7=106.78                H39-C6-C5=110.20               H40-C6-C5=111.21               H40-C6-H39=109.57              
H41-C6-C5=108.88               H41-C6-H39=108.89              H41-C6-H40=108.02              H42-C7-C5=111.21               
H43-C7-C5=108.46               H43-C7-H42=109.04              H44-C7-C5=110.27               H44-C7-H42=109.85              
H44-C7-H43=107.93              B9-O8-C5=108.78                O8-B9-O3=112.26                C10-B9-O3=123.23               
C10-B9-O8=124.52               C11-C10-B9=116.85              C27-C10-B9=115.83              C27-C10-C11=123.10             
C29-C10-B9=114.85              C29-C10-C11=114.69             C29-C10-C27= 56.98             

 selected dihedral angles (degree)
 ---------------------------------
O3-C2-C1-H33=294.69           O3-C2-C1-H34=175.31           O3-C2-C1-H35= 53.62           C4-C2-C1-H33= 51.33           
C4-C2-C1-H34=291.95           C4-C2-C1-H35=170.26           C5-C2-C1-H33=179.38           C5-C2-C1-H34= 60.00           
C5-C2-C1-H35=298.32           B9-O3-C2-C1=220.42            B9-O3-C2-C4=102.34            B9-O3-C2-C5=343.22            
H36-C4-C2-C1=299.67           H36-C4-C2-O3= 57.89           H36-C4-C2-C5=170.40           H37-C4-C2-C1=181.58           
H37-C4-C2-O3=299.79           H37-C4-C2-C5= 52.31           H38-C4-C2-C1= 59.53           H38-C4-C2-O3=177.75           
H38-C4-C2-C5=290.26           C6-C5-C2-C1=258.13            C6-C5-C2-O3=139.19            C6-C5-C2-C4= 24.31            
C7-C5-C2-C1= 24.26            C7-C5-C2-O3=265.33            C7-C5-C2-C4=150.45            O8-C5-C2-C1=139.07            
O8-C5-C2-O3= 20.13            O8-C5-C2-C4=265.25            H39-C6-C5-C2= 59.54           H39-C6-C5-C7=291.50           
H39-C6-C5-O8=174.94           H40-C6-C5-C2=297.82           H40-C6-C5-C7=169.79           H40-C6-C5-O8= 53.22           
H41-C6-C5-C2=178.91           H41-C6-C5-C7= 50.88           H41-C6-C5-O8=294.31           H42-C7-C5-C2=290.34           
H42-C7-C5-C6= 59.54           H42-C7-C5-O8=177.82           H43-C7-C5-C2=170.44           H43-C7-C5-C6=299.64           
H43-C7-C5-O8= 57.92           H44-C7-C5-C2= 52.45           H44-C7-C5-C6=181.64           H44-C7-C5-O8=299.92           
B9-O8-C5-C2=343.30            B9-O8-C5-C6=220.49            B9-O8-C5-C7=102.43            O8-B9-O3-C2=  7.24            
C10-B9-O3-C2=186.99           O3-B9-O8-C5=  7.08            C10-B9-O8-C5=187.33           C11-C10-B9-O3=178.18          
C11-C10-B9-O8=357.90          C27-C10-B9-O3= 20.50          C27-C10-B9-O8=200.23          C29-C10-B9-O3=316.80          
C29-C10-B9-O8=136.52          
           -------------------------------------------------
          |                Final Singlepoint                |
           -------------------------------------------------

          ...................................................
          :                      SETUP                      :
          :.................................................:
          :  # basis functions                 144          :
          :  # atomic orbitals                 144          :
          :  # shells                           88          :
          :  # electrons                       150          :
          :  max. iterations                   250          :
          :  Hamiltonian                  GFN2-xTB          :
          :  restarted?                      false          :
          :  GBSA solvation                  false          :
          :  PC potential                    false          :
          :  electronic temp.          300.0000000     K    :
          :  accuracy                    1.0000000          :
          :  -> integral cutoff          0.2500000E+02      :
          :  -> integral neglect         0.1000000E-07      :
          :  -> SCF convergence          0.1000000E-05 Eh   :
          :  -> wf. convergence          0.1000000E-03 e    :
          :  Broyden damping             0.4000000          :
          ...................................................

 iter      E             dE          RMSdq      gap      omega  full diag
   1    -83.3926095 -0.833926E+02  0.527E-05    3.11       0.0  T
   2    -83.3926095 -0.101039E-10  0.406E-05    3.11     318.4  T
   3    -83.3926095 -0.378577E-10  0.224E-05    3.11     576.0  T

   *** convergence criteria satisfied after 3 iterations ***

         #    Occupation            Energy/Eh            Energy/eV
      -------------------------------------------------------------
         1        2.0000           -0.6930950             -18.8601
       ...           ...                  ...                  ...
        69        2.0000           -0.4050474             -11.0219
        70        2.0000           -0.4012364             -10.9182
        71        2.0000           -0.3979602             -10.8290
        72        2.0000           -0.3950248             -10.7492
        73        2.0000           -0.3811875             -10.3726
        74        2.0000           -0.3613318              -9.8323
        75        2.0000           -0.3379294              -9.1955 (HOMO)
        76                         -0.2236897              -6.0869 (LUMO)
        77                         -0.1983836              -5.3983
        78                         -0.1697356              -4.6187
        79                         -0.1379875              -3.7548
        80                         -0.0954395              -2.5970
       ...                                ...                  ...
       144                          0.6903673              18.7859
      -------------------------------------------------------------
                  HL-Gap            0.1142397 Eh            3.1086 eV
             Fermi-level           -0.2808095 Eh           -7.6412 eV

 SCC (total)                   0 d,  0 h,  0 min,  0.041 sec
 SCC setup                      ...        0 min,  0.000 sec (  0.529%)
 Dispersion                     ...        0 min,  0.000 sec (  0.869%)
 classical contributions        ...        0 min,  0.000 sec (  0.403%)
 integral evaluation            ...        0 min,  0.006 sec ( 13.934%)
 iterations                     ...        0 min,  0.008 sec ( 19.449%)
 molecular gradient             ...        0 min,  0.027 sec ( 64.077%)
 printout                       ...        0 min,  0.000 sec (  0.727%)

         :::::::::::::::::::::::::::::::::::::::::::::::::::::
         ::                     SUMMARY                     ::
         :::::::::::::::::::::::::::::::::::::::::::::::::::::
         :: total energy             -82.309864731003 Eh    ::
         :: gradient norm              0.000913307822 Eh/a0 ::
         :: HOMO-LUMO gap              3.108621575122 eV    ::
         ::.................................................::
         :: SCC energy               -83.392609491966 Eh    ::
         :: -> isotropic ES            0.148221138004 Eh    ::
         :: -> anisotropic ES          0.011032826595 Eh    ::
         :: -> anisotropic XC          0.026514457246 Eh    ::
         :: -> dispersion             -0.061856460696 Eh    ::
         :: repulsion energy           1.082007604905 Eh    ::
         :: add. restraining           0.000087012381 Eh    ::
         :: total charge              -0.000000000000 e     ::
         :::::::::::::::::::::::::::::::::::::::::::::::::::::

           -------------------------------------------------
          |                Property Printout                |
           -------------------------------------------------

    * Orbital Energies and Occupations

         #    Occupation            Energy/Eh            Energy/eV
      -------------------------------------------------------------
         1        2.0000           -0.6930950             -18.8601
       ...           ...                  ...                  ...
        63        2.0000           -0.4362957             -11.8722
        64        2.0000           -0.4348806             -11.8337
        65        2.0000           -0.4294962             -11.6872
        66        2.0000           -0.4236248             -11.5274
        67        2.0000           -0.4183683             -11.3844
        68        2.0000           -0.4122400             -11.2176
        69        2.0000           -0.4050474             -11.0219
        70        2.0000           -0.4012364             -10.9182
        71        2.0000           -0.3979602             -10.8290
        72        2.0000           -0.3950248             -10.7492
        73        2.0000           -0.3811875             -10.3726
        74        2.0000           -0.3613318              -9.8323
        75        2.0000           -0.3379294              -9.1955 (HOMO)
        76                         -0.2236897              -6.0869 (LUMO)
        77                         -0.1983836              -5.3983
        78                         -0.1697356              -4.6187
        79                         -0.1379875              -3.7548
        80                         -0.0954395              -2.5970
        81                          0.0027850               0.0758
        82                          0.0089501               0.2435
        83                          0.0113293               0.3083
        84                          0.0250541               0.6818
        85                          0.0305511               0.8313
        86                          0.0534831               1.4553
       ...                                ...                  ...
       144                          0.6903673              18.7859
      -------------------------------------------------------------
                  HL-Gap            0.1142397 Eh            3.1086 eV
             Fermi-level           -0.2808095 Eh           -7.6412 eV

     #   Z          covCN         q      C6AA      α(0)
     1   6 C        3.755    -0.117    22.803     6.809
     2   6 C        3.859     0.130    18.443     6.107
     3   8 O        1.638    -0.377    20.425     6.101
     4   6 C        3.755    -0.117    22.788     6.807
     5   6 C        3.861     0.129    18.450     6.108
     6   6 C        3.755    -0.118    22.816     6.811
     7   6 C        3.755    -0.116    22.782     6.806
     8   8 O        1.638    -0.370    20.295     6.081
     9   5 B        2.659     0.440    15.465     6.621
    10   6 C        3.822    -0.060    21.639     6.620
    11   6 C        2.891    -0.054    29.350     8.882
    12   6 C        3.259    -0.023    27.411     8.462
    13   1 H        0.925     0.024     2.671     2.556
    14   6 C        3.867    -0.016    20.813     6.487
    15   1 H        0.925     0.044     2.401     2.423
    16   6 C        2.864    -0.085    30.129     8.997
    17   5 B        2.660     0.431    15.565     6.642
    18   8 O        1.638    -0.372    20.321     6.085
    19   6 C        3.859     0.129    18.453     6.109
    20   6 C        3.755    -0.117    22.794     6.807
    21   6 C        3.755    -0.116    22.772     6.804
    22   6 C        3.859     0.129    18.452     6.109
    23   6 C        3.755    -0.116    22.779     6.805
    24   6 C        3.755    -0.117    22.801     6.808
    25   8 O        1.638    -0.373    20.338     6.087
    26   6 C        2.896    -0.027    28.664     8.778
    27   6 C        3.861    -0.015    20.796     6.485
    28   1 H        0.925     0.041     2.433     2.439
    29   6 C        3.851    -0.008    20.678     6.468
    30   6 C        2.889    -0.053    29.327     8.879
    31   6 C        3.260    -0.021    27.329     8.447
    32   1 H        0.925     0.025     2.662     2.552
    33   1 H        0.925     0.055     2.256     2.349
    34   1 H        0.925     0.041     2.441     2.443
    35   1 H        0.925     0.052     2.295     2.369
    36   1 H        0.925     0.053     2.286     2.364
    37   1 H        0.925     0.044     2.392     2.419
    38   1 H        0.925     0.043     2.405     2.425
    39   1 H        0.925     0.041     2.436     2.441
    40   1 H        0.925     0.053     2.282     2.362
    41   1 H        0.925     0.056     2.252     2.347
    42   1 H        0.925     0.044     2.401     2.423
    43   1 H        0.925     0.053     2.278     2.360
    44   1 H        0.925     0.044     2.403     2.424
    45   1 H        0.925     0.031     2.571     2.507
    46   1 H        0.925     0.054     2.272     2.357
    47   1 H        0.925     0.039     2.460     2.453
    48   1 H        0.925     0.052     2.298     2.371
    49   1 H        0.925     0.052     2.298     2.371
    50   1 H        0.925     0.044     2.403     2.424
    51   1 H        0.925     0.042     2.425     2.435
    52   1 H        0.925     0.042     2.419     2.432
    53   1 H        0.925     0.052     2.296     2.370
    54   1 H        0.925     0.044     2.400     2.423
    55   1 H        0.925     0.039     2.456     2.451
    56   1 H        0.925     0.052     2.299     2.371
    57   1 H        0.925     0.054     2.272     2.357
    58   1 H        0.925     0.037     2.488     2.467
    59   1 H        0.925     0.034     2.528     2.486
    60   1 H        0.925     0.021     2.721     2.579

 Mol. C6AA /au·bohr⁶  :      32728.734418
 Mol. C8AA /au·bohr⁸  :     757456.427546
 Mol. α(0) /au        :        272.563986


Wiberg/Mayer (AO) data.
largest (>0.10) Wiberg bond orders for each atom

 ---------------------------------------------------------------------------
     #   Z sym  total        # sym  WBO       # sym  WBO       # sym  WBO
 ---------------------------------------------------------------------------
     1   6 C    3.994 --     2 C    0.997    34 H    0.984    33 H    0.982
                            35 H    0.982
     2   6 C    3.942 --     1 C    0.997     4 C    0.991     3 O    0.950
                             5 C    0.937
     3   8 O    2.226 --     9 B    1.127     2 C    0.950
     4   6 C    3.994 --     2 C    0.991    38 H    0.984    37 H    0.984
                            36 H    0.983
     5   6 C    3.941 --     6 C    0.997     7 C    0.991     8 O    0.949
                             2 C    0.937
     6   6 C    3.994 --     5 C    0.997    39 H    0.984    41 H    0.982
                            40 H    0.982
     7   6 C    3.995 --     5 C    0.991    42 H    0.984    44 H    0.984
                            43 H    0.983
     8   8 O    2.236 --     9 B    1.139     5 C    0.949
     9   5 B    3.377 --     8 O    1.139     3 O    1.127    10 C    0.995
    10   6 C    3.929 --    11 C    1.133     9 B    0.995    27 C    0.873
                            29 C    0.746
    11   6 C    3.987 --    12 C    1.737    10 C    1.133    45 H    0.964
    12   6 C    3.981 --    11 C    1.737    13 H    0.969    14 C    0.962
                            31 C    0.167
    13   1 H    0.999 --    12 C    0.969
    14   6 C    3.987 --    16 C    0.989    15 H    0.969    31 C    0.969
                            12 C    0.962
    15   1 H    0.998 --    14 C    0.969
    16   6 C    3.976 --    26 C    1.819    17 B    1.004    14 C    0.989
    17   5 B    3.376 --    25 O    1.126    18 O    1.126    16 C    1.004
    18   8 O    2.232 --    17 B    1.126    19 C    0.954
    19   6 C    3.943 --    20 C    0.997    21 C    0.990    18 O    0.954
                            22 C    0.936
    20   6 C    3.994 --    19 C    0.997    47 H    0.985    46 H    0.983
                            48 H    0.982
    21   6 C    3.994 --    19 C    0.990    51 H    0.985    50 H    0.984
                            49 H    0.983
    22   6 C    3.943 --    24 C    0.996    23 C    0.990    25 O    0.954
                            19 C    0.936
    23   6 C    3.995 --    22 C    0.990    52 H    0.984    54 H    0.984
                            53 H    0.983
    24   6 C    3.994 --    22 C    0.996    55 H    0.985    57 H    0.983
                            56 H    0.982
    25   8 O    2.231 --    17 B    1.126    22 C    0.954
    26   6 C    3.988 --    16 C    1.819    27 C    1.061    58 H    0.965
    27   6 C    3.955 --    26 C    1.061    28 H    0.969    29 C    0.925
                            10 C    0.873
    28   1 H    0.998 --    27 C    0.969
    29   6 C    3.948 --    30 C    1.147    59 H    0.972    27 C    0.925
                            10 C    0.746
    30   6 C    3.984 --    31 C    1.723    29 C    1.147    60 H    0.966
    31   6 C    3.976 --    30 C    1.723    32 H    0.970    14 C    0.969
                            12 C    0.167
    32   1 H    0.999 --    31 C    0.970
    33   1 H    0.997 --     1 C    0.982
    34   1 H    0.998 --     1 C    0.984
    35   1 H    0.997 --     1 C    0.982
    36   1 H    0.997 --     4 C    0.983
    37   1 H    0.998 --     4 C    0.984
    38   1 H    0.998 --     4 C    0.984
    39   1 H    0.998 --     6 C    0.984
    40   1 H    0.997 --     6 C    0.982
    41   1 H    0.997 --     6 C    0.982
    42   1 H    0.998 --     7 C    0.984
    43   1 H    0.997 --     7 C    0.983
    44   1 H    0.998 --     7 C    0.984
    45   1 H    0.999 --    11 C    0.964
    46   1 H    0.997 --    20 C    0.983
    47   1 H    0.998 --    20 C    0.985
    48   1 H    0.997 --    20 C    0.982
    49   1 H    0.997 --    21 C    0.983
    50   1 H    0.998 --    21 C    0.984
    51   1 H    0.998 --    21 C    0.985
    52   1 H    0.998 --    23 C    0.984
    53   1 H    0.997 --    23 C    0.983
    54   1 H    0.998 --    23 C    0.984
    55   1 H    0.998 --    24 C    0.985
    56   1 H    0.997 --    24 C    0.982
    57   1 H    0.997 --    24 C    0.983
    58   1 H    0.998 --    26 C    0.965
    59   1 H    0.998 --    29 C    0.972
    60   1 H    0.999 --    30 C    0.966
 ---------------------------------------------------------------------------

Topologies differ in total number of bonds
Writing topology from bond orders to xtbtopo.mol

molecular dipole:
                 x           y           z       tot (Debye)
 q only:       -0.245      -0.541      -0.139
   full:       -0.201      -0.617      -0.200       1.726
molecular quadrupole (traceless):
                xx          xy          yy          xz          yz          zz
 q only:      -43.628      16.981      73.156     -29.240      -8.775     -29.528
  q+dip:      -46.461      13.616      82.642     -27.206      -5.121     -36.182
   full:      -46.895      12.579      84.388     -28.322      -6.488     -37.493

           -------------------------------------------------
          |                Geometry Summary                 |
           -------------------------------------------------

      molecular mass/u    :      382.1099696
   center of mass at/Å    :        2.9470073     -35.9387010      21.8329371
  moments of inertia/u·Å² :        0.1168867E+04   0.6849571E+04   0.7156489E+04
rotational constants/cm⁻¹ :        0.1442220E-01   0.2461122E-02   0.2355573E-02

 * 60 selected distances

     #   Z          #   Z                                           value/Å
     1   6 C        2   6 C                                       1.5266292
     2   6 C        3   8 O                                       1.4281713
     2   6 C        4   6 C                                       1.5337199
     5   6 C        6   6 C                                       1.5264786
     5   6 C        7   6 C                                       1.5336231
     5   6 C        8   8 O                                       1.4291708
     3   8 O        9   5 B                                       1.3676796
     8   8 O        9   5 B                                       1.3639650
     9   5 B       10   6 C                                       1.5654424 (max)
    10   6 C       11   6 C                                       1.4515158
    11   6 C       12   6 C                                       1.3442641
    12   6 C       13   1 H                                       1.0841992
    12   6 C       14   6 C                                       1.4865824
    14   6 C       15   1 H                                       1.0894316
    16   6 C       17   5 B                                       1.5587426
    17   5 B       18   8 O                                       1.3685585
    18   8 O       19   6 C                                       1.4265650
    19   6 C       20   6 C                                       1.5269853
    19   6 C       21   6 C                                       1.5341991
    22   6 C       23   6 C                                       1.5341894
    22   6 C       24   6 C                                       1.5273942
    17   5 B       25   8 O                                       1.3683384
    22   6 C       25   8 O                                       1.4267722
    16   6 C       26   6 C                                       1.3356213
    10   6 C       27   6 C                                       1.5246175
    26   6 C       27   6 C                                       1.4652468
    27   6 C       28   1 H                                       1.0844160
    27   6 C       29   6 C                                       1.4972302
    29   6 C       30   6 C                                       1.4418726
    14   6 C       31   6 C                                       1.4843053
    30   6 C       31   6 C                                       1.3454402
    31   6 C       32   1 H                                       1.0841668
     1   6 C       33   1 H                                       1.0872248
     1   6 C       34   1 H                                       1.0865015
     1   6 C       35   1 H                                       1.0851725
     4   6 C       36   1 H                                       1.0876430
     4   6 C       37   1 H                                       1.0871522
     4   6 C       38   1 H                                       1.0857710
     6   6 C       39   1 H                                       1.0866388
     6   6 C       40   1 H                                       1.0850490
     6   6 C       41   1 H                                       1.0870800
     7   6 C       42   1 H                                       1.0857739
     7   6 C       43   1 H                                       1.0875244
     7   6 C       44   1 H                                       1.0871676
    11   6 C       45   1 H                                       1.0821323 (min)
    20   6 C       46   1 H                                       1.0872151
    20   6 C       47   1 H                                       1.0867297
    20   6 C       48   1 H                                       1.0851406
    21   6 C       49   1 H                                       1.0876408
    21   6 C       50   1 H                                       1.0871383
    21   6 C       51   1 H                                       1.0858679
    23   6 C       52   1 H                                       1.0859482
    23   6 C       53   1 H                                       1.0875879
    23   6 C       54   1 H                                       1.0869910
    24   6 C       55   1 H                                       1.0867394
    24   6 C       56   1 H                                       1.0850480
    24   6 C       57   1 H                                       1.0871592
    26   6 C       58   1 H                                       1.0822564
    29   6 C       59   1 H                                       1.0825042
    30   6 C       60   1 H                                       1.0828711

 * 5 distinct bonds (by element types)

   Z      Z             #   av. dist./Å        max./Å        min./Å
   1 H    6 C          32     1.0859338     1.0894316     1.0821323
   5 B    6 C           2     1.5620925     1.5654424     1.5587426
   6 C    6 C          18     1.4788842     1.5341991     1.3356213
   5 B    8 O           4     1.3671354     1.3685585     1.3639650
   6 C    8 O           4     1.4276698     1.4291708     1.4265650


optimized geometry written to: xtbopt.xyz


           -------------------------------------------------
          | TOTAL ENERGY              -82.309864731003 Eh   |
          | GRADIENT NORM               0.000913307822 Eh/α |
          | HOMO-LUMO GAP               3.108621575122 eV   |
           -------------------------------------------------

------------------------------------------------------------------------
 * finished run on 2022/07/09 at 18:33:37.832     
------------------------------------------------------------------------
 total:
 * wall-time:     0 d,  0 h,  0 min,  1.041 sec
 *  cpu-time:     0 d,  0 h,  0 min,  1.041 sec
 * ratio c/w:     1.000 speedup
 SCF:
 * wall-time:     0 d,  0 h,  0 min,  0.068 sec
 *  cpu-time:     0 d,  0 h,  0 min,  0.068 sec
 * ratio c/w:     0.999 speedup
 ANC optimizer:
 * wall-time:     0 d,  0 h,  0 min,  0.961 sec
 *  cpu-time:     0 d,  0 h,  0 min,  0.960 sec
 * ratio c/w:     1.000 speedup

