60
 energy: -82.322467943180 gnorm: 0.000493477424 xtb: 6.5.0 (homebrew)
C            3.65576962600353      -37.65800466199809       15.79278437965165
C            3.79784353163552      -38.05171721939159       17.26043373824370
O            3.35491051458423      -36.97561566077455       18.08983040885379
C            2.88002670946552      -39.24469147236512       17.55475147680209
C            5.27266897513003      -38.28543196231814       17.74737343715395
C            5.69893667374151      -39.74802921013232       17.83780165654002
C            6.30179973859189      -37.50912225984121       16.91685257910093
O            5.27309553307138      -37.70611784840914       19.05448779894980
B            4.19075998372616      -36.88458904847848       19.16906156952448
C            3.91728049710091      -35.93329125372905       20.38858632860818
C            4.87795104431538      -36.05188503314390       21.50075792683842
C            4.86828303592862      -35.38169589912000       22.64663572564162
H            5.63088293806168      -35.58997036820610       23.38426628957276
C            3.84984213579088      -34.33683365528636       23.02188943094640
H            4.09863671822784      -33.93464292307164       24.00563963886885
C            2.48341116342201      -34.98944456690028       23.11848560197357
B            1.75198896891643      -34.95751501403301       24.49235819378791
O            2.27508683165321      -34.37862394832703       25.61698989796285
C            1.42348434583756      -34.67090033327861       26.72274968998519
C            1.29998067947242      -33.43661159713777       27.61315573929637
C            2.09596210984431      -35.79849975305595       27.51646480769790
C            0.08813536799274      -35.12620043847980       26.03070451331499
C           -0.91806047110415      -33.97965900056089       25.86668363753280
C           -0.61039120578825      -36.31055159667119       26.69484270560993
O            0.51398257199060      -35.49542067024701       24.71944027845459
C            1.91206374073335      -35.58730436461519       22.06110112135969
C            2.42579346576967      -35.70062077535115       20.70275673459025
H            1.75812656890765      -36.21621122476603       20.02353770783426
C            3.26314032455644      -34.62412508423854       20.05143679054289
C            3.56100956492359      -33.36003669656019       20.73271551261011
C            3.80432838519419      -33.20581038232842       22.02906804819229
H            3.98648965505315      -32.21436899178983       22.41976873147734
H            2.60030472500783      -37.53869942779764       15.56079423350769
H            4.07047176887275      -38.43393638064968       15.15511374660602
H            4.15386709157185      -36.71597371855379       15.58792832197757
H            1.85247418938610      -38.94734778851632       17.35781535111960
H            2.95401215307673      -39.52540648167408       18.60255933245639
H            3.12827706016211      -40.09511380715390       16.92711972846973
H            5.60973726245826      -40.22561061696509       16.86582082544810
H            5.09945152826161      -40.28738663455081       18.56386275177481
H            6.73677838710341      -39.79299604203108       18.15821512726956
H            6.39076225345569      -37.92239115774098       15.91667957318745
H            7.26659888612436      -37.57330314811485       17.41456054251248
H            6.02365975537106      -36.45965119201373       16.85928290645913
H            5.64796582531538      -36.79292418900513       21.32846709618608
H            2.26965411458521      -33.22295435209733       28.05608516269472
H            0.58235111858328      -33.61789577706732       28.40882196221141
H            0.99375737488120      -32.56790049973397       27.03940241183274
H            3.08563966225764      -35.46478467666283       27.82011933660769
H            2.21626193864029      -36.67795829053565       26.88865933362858
H            1.52134370102631      -36.05297785351458       28.40201075772452
H           -1.32247281787981      -33.67143613910747       26.82624608583992
H           -1.73211817533819      -34.32378713520475       25.23283327896476
H           -0.44611756779550      -33.13254013804238       25.37531477372952
H           -0.86230892819881      -36.06826918066094       27.72390507257177
H            0.01378960325759      -37.19783020089820       26.67294001352040
H           -1.52575722865124      -36.52934100873554       26.15063984406072
H            0.94085597833035      -36.04100700343319       22.21665715563046
H            3.06212609519079      -34.49718062250784       18.99303692499530
H            3.54913452219332      -32.48680362242351       20.09148625149415
