60
# ORCA AIMD Position Step 0, t=0.00 fs, E_Pot=-1207.45275845 Hartree, Unit is Angstrom
 C      0.7791620035     -1.6007890072     -6.0655680272
 C      0.8989830040     -1.9490950087     -4.5857040205
 O      0.5242170023     -0.7839080035     -3.7969380170
 C     -0.0813700004     -3.0690740137     -4.2176520189
 C      2.3740910106     -2.2309470100     -4.0850440183
 C      2.7631180124     -3.7047670166     -4.0305390181
 C      3.4302600154     -1.4257980064     -4.8508860217
 O      2.3459020105     -1.7045420076     -2.7271280122
 B      1.3214570059     -0.7844440035     -2.6681480119
 C      1.0740900048      0.1612530007     -1.4547880065
 C      2.0573860092      0.0963370004     -0.3505690016
 C      2.0400730091      0.8094170036      0.8000750036
 H      2.8490300128      0.6441290029      1.5309600069
 C      0.9697990043      1.8236730082      1.1582410052
 H      1.2137970054      2.2531340101      2.1470200096
 C     -0.3911380018      1.1385390051      1.2732010057
 B     -1.1234190050      1.1311150051      2.6402760118
 O     -0.6383430029      1.7934000080      3.7538630168
 C     -1.4547080065      1.3903870062      4.8870040219
 C     -1.6145570072      2.5827230116      5.8254530261
 C     -0.7061140032      0.2523090011      5.5921080250
 C     -2.7898730125      0.9087500041      4.1854560187
 C     -3.7835760169      2.0516830092      3.9416380177
 C     -3.4886570156     -0.2613360012      4.8717100218
 O     -2.3159520104      0.4731700021      2.8833140129
 C     -0.9710910043      0.5118750023      0.2068960009
 C     -0.4509720020      0.3983640018     -1.1599370052
 H     -1.1045210049     -0.1482540007     -1.8566730083
 C      0.3655350016      1.4943680067     -1.8323440082
 C      0.6816980031      2.7742420124     -1.1727710053
 C      0.9419870042      2.9510740132      0.1436300006
 H      1.1582330052      3.9698990178      0.5055080023
 H     -0.2824100013     -1.4141920063     -6.3208930283
 H      1.1417890051     -2.4370170109     -6.6963460300
 H      1.3542640061     -0.6912210031     -6.3179740283
 H     -1.1148870050     -2.7118580121     -4.3926930197
 H      0.0089110000     -3.3446630150     -3.1485820141
 H      0.0825220004     -3.9765640178     -4.8308720216
 H      2.7143140122     -4.1630560186     -5.0388340226
 H      2.1043700094     -4.2743670191     -3.3500580150
 H      3.8021360170     -3.8032290170     -3.6595740164
 H      3.5795460160     -1.8145240081     -5.8771170263
 H      4.3932540197     -1.4931290067     -4.3084370193
 H      3.1495480141     -0.3562630016     -4.9153690220
 H      2.8790380129     -0.6211090028     -0.5101270023
 H     -0.6302100028      2.8526710128      6.2559740280
 H     -2.2995840103      2.3391020105      6.6623940298
 H     -2.0062620090      3.4689390155      5.2935740237
 H      0.3098710014      0.6037940027      5.8578160262
 H     -0.6000290027     -0.6270630028      4.9271330221
 H     -1.2205680055     -0.0650760003      6.5201050292
 H     -4.2611170191      2.3908670107      4.8817350219
 H     -4.5763040205      1.6930110076      3.2566110146
 H     -3.2881990147      2.9196280131      3.4637940155
 H     -3.7936360170      0.0109300000      5.9021890264
 H     -2.8382180127     -1.1537340052      4.9177030220
 H     -4.4004720197     -0.5344480024      4.3050350193
 H     -1.9469050087      0.0257930001      0.3786760017
 H      0.1645280007      1.5749920071     -2.9116050130
 H      0.7001860031      3.6548930164     -1.8359200082
60
# ORCA AIMD Position Step 1, t=0.50 fs, E_Pot=-1207.44976117 Hartree, Unit is Angstrom
 C      0.7832823969     -1.6002893536     -6.0635573046
 C      0.8985000291     -1.9403189803     -4.5772062704
 O      0.5283868457     -0.7833657663     -3.7965684490
 C     -0.0754999135     -3.0733421072     -4.2140220853
 C      2.3706490216     -2.2270813536     -4.0870450777
 C      2.7600119745     -3.7007272044     -4.0320713516
 C      3.4324624343     -1.4277766153     -4.8523481828
 O      2.3492745408     -1.7060473911     -2.7274923345
 B      1.3170036322     -0.7820624703     -2.6679992431
 C      1.0759393099      0.1545322854     -1.4564308187
 C      2.0599611278      0.0956220445     -0.3541557258
 C      2.0414928637      0.8072611623      0.8012981655
 H      2.8671199291      0.6375947608      1.5339822089
 C      0.9653178172      1.8238443586      1.1563869477
 H      1.2150336128      2.2513935038      2.1591833914
 C     -0.3883625347      1.1367345471      1.2728871369
 B     -1.1219799086      1.1305503627      2.6408934764
 O     -0.6388992030      1.7965300376      3.7491265610
 C     -1.4552868574      1.3979592531      4.8918392622
 C     -1.6122093750      2.5826088984      5.8241660250
 C     -0.7106647151      0.2495678653      5.5903370718
 C     -2.7926528124      0.9086211299      4.1858428503
 C     -3.7821235654      2.0551986091      3.9410073658
 C     -3.4859006940     -0.2581225899      4.8749575512
 O     -2.3150745759      0.4716905470      2.8820361135
 C     -0.9697745339      0.5201257033      0.2085295799
 C     -0.4520288578      0.3974468362     -1.1602010909
 H     -1.1052939466     -0.1498829678     -1.8497403524
 C      0.3617955390      1.4964049638     -1.8320531362
 C      0.6840249309      2.7801142927     -1.1701774937
 C      0.9389713899      2.9523156858      0.1445894663
 H      1.1610640870      3.9828056478      0.4968919019
 H     -0.2708895719     -1.4032916167     -6.3400894289
 H      1.1392232540     -2.4131290936     -6.6828661816
 H      1.3620293642     -0.6948718229     -6.3037079156
 H     -1.1234678771     -2.7160236801     -4.3778368616
 H     -0.0005146087     -3.3498836896     -3.1698989792
 H      0.0736137910     -3.9836291373     -4.8375511617
 H      2.7328661299     -4.1675634905     -5.0395569273
 H      2.1146612924     -4.2728370798     -3.3420469705
 H      3.7825347397     -3.8069400568     -3.6474948470
 H      3.5760454335     -1.8221495180     -5.8768021163
 H      4.3813647502     -1.4957803871     -4.3061967139
 H      3.1266030208     -0.3454088297     -4.9123978763
 H      2.8850217545     -0.6138498223     -0.5072574971
 H     -0.6404366116      2.8564200063      6.2565348715
 H     -2.2917811061      2.3330225713      6.6581661651
 H     -2.0069155687      3.4513937212      5.2996710064
 H      0.3251615224      0.5924078755      5.8532621343
 H     -0.5952185802     -0.6391557711      4.9239738691
 H     -1.2306150197     -0.0793973225      6.5176661872
 H     -4.2578234079      2.3788460956      4.8756724971
 H     -4.5805688858      1.6880396318      3.2619552015
 H     -3.2822794165      2.9184381281      3.4593032572
 H     -3.7987815794      0.0040268437      5.8977320738
 H     -2.8320046995     -1.1520124303      4.9037788565
 H     -4.4096679131     -0.5217005977      4.3050713989
 H     -1.9509622217      0.0355444115      0.3701512472
 H      0.1675325256      1.5757448448     -2.9203423788
 H      0.7007325008      3.6638285214     -1.8317770687
60
# ORCA AIMD Position Step 2, t=1.00 fs, E_Pot=-1207.44185072 Hartree, Unit is Angstrom
 C      0.7873406872     -1.5996560565     -6.0614769000
 C      0.8980160154     -1.9315994108     -4.5687524724
 O      0.5325900980     -0.7828622061     -3.7961827633
 C     -0.0697533980     -3.0775805344     -4.2105433703
 C      2.3672158867     -2.2232160569     -4.0890124615
 C      2.7568829245     -3.6967388236     -4.0336080921
 C      3.4345713492     -1.4296384314     -4.8538391739
 O      2.3525610073     -1.7075087393     -2.7279290090
 B      1.3126392335     -0.7797580090     -2.6678665816
 C      1.0777173620      0.1478937347     -1.4580403831
 C      2.0625457103      0.0949861655     -0.3575869880
 C      2.0429857884      0.8050098377      0.8024306430
 H      2.8833659331      0.6314918546      1.5354663929
 C      0.9609053896      1.8240372847      1.1546336040
 H      1.2157867772      2.2489443550      2.1694121500
 C     -0.3856391882      1.1348845742      1.2724635496
 B     -1.1205798627      1.1299762069      2.6415430413
 O     -0.6395301461      1.7996114939      3.7444212439
 C     -1.4558532499      1.4054497962      4.8965780359
 C     -1.6098703590      2.5824625191      5.8229307737
 C     -0.7151161459      0.2467788169      5.5885813258
 C     -2.7953732994      0.9085331725      4.1862118666
 C     -3.7806824334      2.0586824080      3.9403065009
 C     -3.4832024591     -0.2549774567      4.8781327809
 O     -2.3141576969      0.4702678992      2.8808336735
 C     -0.9684625863      0.5283816752      0.2102389002
 C     -0.4530277513      0.3965669257     -1.1604950814
 H     -1.1054150151     -0.1509189015     -1.8421147283
 C      0.3580498132      1.4983950212     -1.8318159665
 C      0.6863573410      2.7859939718     -1.1675045347
 C      0.9359572154      2.9536304440      0.1454418878
 H      1.1634895802      3.9937628134      0.4878082676
 H     -0.2582743840     -1.3926697980     -6.3587095813
 H      1.1369890699     -2.3899130579     -6.6696818226
 H      1.3693508231     -0.6992864419     -6.2892534362
 H     -1.1301032166     -2.7207239830     -4.3628872693
 H     -0.0096372424     -3.3552789709     -3.1905434444
 H      0.0646911431     -3.9892096828     -4.8433487042
 H      2.7512573342     -4.1714256215     -5.0390112301
 H      2.1253272287     -4.2706362810     -3.3350062313
 H      3.7626025831     -3.8102938493     -3.6357155341
 H      3.5723848369     -1.8292494276     -5.8753610299
 H      4.3690215880     -1.4983320754     -4.3042704714
 H      3.1045673577     -0.3369206484     -4.9093897646
 H      2.8901597132     -0.6059042941     -0.5042838002
 H     -0.6510949574      2.8599362729      6.2567938540
 H     -2.2834509177      2.3271253569      6.6532300424
 H     -2.0076018147      3.4338413451      5.3057664567
 H      0.3382627977      0.5804621120      5.8483415105
 H     -0.5907788942     -0.6496485116      4.9217655984
 H     -1.2398733768     -0.0931024904      6.5139061020
 H     -4.2541974032      2.3668188500      4.8692029736
 H     -4.5837230260      1.6836032141      3.2681156168
 H     -3.2769996972      2.9162774574      3.4553954319
 H     -3.8035230013     -0.0029893859      5.8926534185
 H     -2.8267126905     -1.1491062039      4.8899078434
 H     -4.4172670628     -0.5085893944      4.3059963932
 H     -1.9536558926      0.0459857186      0.3615453609
 H      0.1708335945      1.5764034649     -2.9271141668
 H      0.7012862558      3.6715518134     -1.8267471003
60
# ORCA AIMD Position Step 3, t=1.50 fs, E_Pot=-1207.43049845 Hartree, Unit is Angstrom
 C      0.7912776828     -1.5987583044     -6.0592100464
 C      0.8975182030     -1.9230020144     -4.5604055271
 O      0.5368017808     -0.7823703919     -3.7957785211
 C     -0.0642106155     -3.0817379014     -4.2073836666
 C      2.3638171954     -2.2193667975     -4.0909318470
 C      2.7536941672     -3.6928110659     -4.0351639878
 C      3.4364715481     -1.4313071932     -4.8553775898
 O      2.3557366843     -1.7089020382     -2.7284374341
 B      1.3084388820     -0.7775797792     -2.6677381132
 C      1.0793948757      0.1413817294     -1.4595924239
 C      2.0651284156      0.0944530643     -0.3608291383
 C      2.0445847416      0.8026543478      0.8034758061
 H      2.8971316415      0.6260137058      1.5349755337
 C      0.9566181401      1.8242605606      1.1530474281
 H      1.2158663113      2.2456146968      2.1770589393
 C     -0.3829727691      1.1330084592      1.2719659934
 B     -1.1192286172      1.1293843273      2.6422126250
 O     -0.6402374869      1.8026544361      3.7397699746
 C     -1.4563915240      1.4127881898      4.9011585952
 C     -1.6075448177      2.5822169345      5.8217788207
 C     -0.7194059082      0.2439183881      5.5868423142
 C     -2.7980046110      0.9085221565      4.1865599904
 C     -3.7792392418      2.0620814425      3.9394817875
 C     -3.4805944640     -0.2519288128      4.8811592126
 O     -2.3132028990      0.4689024927      2.8797201809
 C     -0.9671850157      0.5366070337      0.2119744372
 C     -0.4539278829      0.3957637110     -1.1607947702
 H     -1.1051282835     -0.1515417136     -1.8340701342
 C      0.3543061244      1.5003374527     -1.8316565726
 C      0.6886736406      2.7918457020     -1.1647926177
 C      0.9329627896      2.9550691927      0.1462171493
 H      1.1654105096      4.0022801498      0.4783099543
 H     -0.2447111439     -1.3823295627     -6.3765627686
 H      1.1359013025     -2.3691117436     -6.6579644747
 H      1.3764398999     -0.7041140824     -6.2747484148
 H     -1.1342273060     -2.7260542909     -4.3479303137
 H     -0.0181096632     -3.3614362823     -3.2084714417
 H      0.0558776806     -3.9929730662     -4.8481227194
 H      2.7693047089     -4.1745806845     -5.0371115973
 H      2.1360009267     -4.2678270230     -3.3290471626
 H      3.7432160447     -3.8131227014     -3.6240420128
 H      3.5686401547     -1.8357452441     -5.8729041453
 H      4.3569426114     -1.5007316571     -4.3023165522
 H      3.0839885456     -0.3316744121     -4.9064108910
 H      2.8946714464     -0.5975216155     -0.5013503602
 H     -0.6614574306      2.8633922654      6.2569850592
 H     -2.2748687839      2.3213354102      6.6478891912
 H     -2.0088174377      3.4173951096      5.3112393555
 H      0.3483770296      0.5678209792      5.8430303979
 H     -0.5869270905     -0.6580857936      4.9206426621
 H     -1.2481475568     -0.1060113087      6.5086625297
 H     -4.2505257688      2.3551946525      4.8629989833
 H     -4.5856446903      1.6798324470      3.2750465626
 H     -3.2724244491      2.9132412748      3.4520790236
 H     -3.8078446068     -0.0099593329      5.8875453706
 H     -2.8225073133     -1.1449637219      4.8761829304
 H     -4.4228450783     -0.4951524685      4.3079917125
 H     -1.9549131973      0.0571731932      0.3529879705
 H      0.1744451196      1.5769774900     -2.9315254059
 H      0.7018794803      3.6780226551     -1.8208520980
60
# ORCA AIMD Position Step 4, t=2.00 fs, E_Pot=-1207.41801217 Hartree, Unit is Angstrom
 C      0.7950384374     -1.5974690364     -6.0566358435
 C      0.8969954675     -1.9145883729     -4.5522214615
 O      0.5409996674     -0.7818602634     -3.7953519833
 C     -0.0589297701     -3.0857617478     -4.2046967510
 C      2.3604757961     -2.2155462064     -4.0927909614
 C      2.7504101731     -3.6889427558     -4.0367547176
 C      3.4380537877     -1.4327265655     -4.8569781867
 O      2.3587816220     -1.7102062583     -2.7290173957
 B      1.3044708344     -0.7755718734     -2.6676008173
 C      1.0809456170      0.1350333249     -1.4610627228
 C      2.0676954545      0.0940473228     -0.3638544060
 C      2.0463099493      0.8001886669      0.8044280288
 H      2.9079654915      0.6213101816      1.5322283663
 C      0.9525045553      1.8245168740      1.1516764472
 H      1.2151306343      2.2413105272      2.1816714652
 C     -0.3803645286      1.1311246998      1.2714321120
 B     -1.1179341049      1.1287661144      2.6428898432
 O     -0.6410229397      1.8056718893      3.7351908582
 C     -1.4568864730      1.4199091529      4.9055233718
 C     -1.6052335710      2.5818079037      5.8207368797
 C     -0.7234890067      0.2409679665      5.5851153000
 C     -2.8005196642      0.9086236349      4.1868849860
 C     -3.7777760082      2.0653447511      3.9384865232
 C     -3.4780987548     -0.2489921016      4.8839680930
 O     -2.3122110698      0.4675933147      2.8787076471
 C     -0.9659635359      0.5447765749      0.2136848690
 C     -0.4546865020      0.3950784067     -1.1610725060
 H     -1.1047158540     -0.1519658155     -1.8259102863
 C      0.3505716665      1.5022336156     -1.8315858476
 C      0.6909540272      2.7976328861     -1.1620755649
 C      0.9300010908      2.9566695250      0.1469430480
 H      1.1667619033      4.0080400585      0.4684980462
 H     -0.2303874019     -1.3722508303     -6.3935015347
 H      1.1367809096     -2.3524373686     -6.6488814192
 H      1.3835427989     -0.7089753603     -6.2603198512
 H     -1.1354611507     -2.7320514284     -4.3330671018
 H     -0.0256350607     -3.3689623967     -3.2216955331
 H      0.0473054426     -3.9947022867     -4.8518059170
 H      2.7868495804     -4.1770013951     -5.0338481220
 H      2.1462869352     -4.2645096977     -3.3242223807
 H      3.7252164773     -3.8152691165     -3.6122538408
 H      3.5648931438     -1.8416028918     -5.8696105334
 H      4.3458435820     -1.5029398549     -4.2999706224
 H      3.0653289929     -0.3302728869     -4.9035362928
 H      2.8988278725     -0.5889768849     -0.4986020819
 H     -0.6707903826      2.8669815683      6.2573563325
 H     -2.2663325412      2.3155564834      6.6424835223
 H     -2.0110748007      3.4031386436      5.3154814056
 H      0.3549226583      0.5544161476      5.8373479310
 H     -0.5838570291     -0.6641532743      4.9206428365
 H     -1.2553145287     -0.1179925137      6.5018696785
 H     -4.2470977083      2.3443590448      4.8577389211
 H     -4.5862938729      1.6768148343      3.2826430239
 H     -3.2685690053      2.9094901296      3.4493223280
 H     -3.8117521228     -0.0167302987      5.8830164200
 H     -2.8194853905     -1.1396100288      4.8626879333
 H     -4.4261203546     -0.4814544475      4.3111561733
 H     -1.9547611497      0.0691238304      0.3446134994
 H      0.1783543466      1.5774865606     -2.9333481380
 H      0.7025450710      3.6832926003     -1.8141734968
60
# ORCA AIMD Position Step 5, t=2.50 fs, E_Pot=-1207.40694879 Hartree, Unit is Angstrom
 C      0.7985821124     -1.5956859202     -6.0536479891
 C      0.8964386554     -1.9064181468     -4.5442513199
 O      0.5451632464     -0.7812988586     -3.7948980793
 C     -0.0539478091     -3.0896043096     -4.2025962114
 C      2.3572125539     -2.2117651945     -4.0945789683
 C      2.7470021668     -3.6851243952     -4.0383932235
 C      3.4392207062     -1.4338581301     -4.8586490855
 O      2.3616794790     -1.7114026901     -2.7296691360
 B      1.3007979622     -0.7737742127     -2.6674405623
 C      1.0823459559      0.1288801123     -1.4624266010
 C      2.0702315338      0.0937932351     -0.3666401736
 C      2.0481686452      0.7976098608      0.8052726069
 H      2.9155937046      0.6174900669      1.5270908523
 C      0.9486062886      1.8248031842      1.1505510228
 H      1.2134877281      2.2360118020      2.1829868349
 C     -0.3778131708      1.1292510148      1.2709007082
 B     -1.1167028134      1.1281127969      2.6435619364
 O     -0.6418882924      1.8086788722      3.7306984805
 C     -1.4573232770      1.4267507388      4.9096175775
 C     -1.6029356425      2.5811850621      5.8198245134
 C     -0.7273363984      0.2379157210      5.5833899136
 C     -2.8028931241      0.9088727623      4.1871854945
 C     -3.7762731737      2.0684248629      3.9372861697
 C     -3.4757292492     -0.2461700833      4.8865015990
 O     -2.3111826303      0.4663383696      2.8778071049
 C     -0.9648118632      0.5528739006      0.2153177428
 C     -0.4552604061      0.3945527403     -1.1612991624
 H     -1.1044756468     -0.1524211444     -1.8179471864
 C      0.3468534074      1.5040864609     -1.8316012458
 C      0.6931800117      2.8033164185     -1.1593808245
 C      0.9270802805      2.9584547699      0.1476447505
 H      1.1675142136      4.0108975887      0.4585208905
 H     -0.2155271476     -1.3623952338     -6.4094187077
 H      1.1403323695     -2.3413035806     -6.6433894263
 H      1.3909251510     -0.7134851799     -6.2460826251
 H     -1.1336066420     -2.7386956513     -4.3184091815
 H     -0.0319771392     -3.3783895366     -3.2286032953
 H      0.0391153399     -3.9942992973     -4.8544101372
 H      2.8037576894     -4.1786950816     -5.0292856281
 H      2.1557724717     -4.2608151923     -3.3205359290
 H      3.7093403065     -3.8165781700     -3.6001373857
 H      3.5612304038     -1.8468283195     -5.8657173850
 H      4.3363708098     -1.5049259716     -4.2968886834
 H      3.0489664108     -0.3330698459     -4.9008482728
 H      2.9029278469     -0.5805534666     -0.4961807300
 H     -0.6784113520      2.8709017963      6.2581422649
 H     -2.2581466564      2.3096796734      6.6373698419
 H     -2.0148387667      3.3920044663      5.3179743276
 H      0.3575254636      0.5402415216      5.8313539162
 H     -0.5817389811     -0.6676766945      4.9217069792
 H     -1.2613226700     -0.1289623879      6.4935586105
 H     -4.2441713993      2.3346552365      4.8540412361
 H     -4.5857114860      1.6745949043      3.2907427439
 H     -3.2654034639      2.9052432729      3.4470566968
 H     -3.8152554177     -0.0231658396      5.8796449627
 H     -2.8176754654     -1.1331482718      4.8494975793
 H     -4.4269538706     -0.4675854378      4.3155072278
 H     -1.9533237312      0.0818147076      0.3365594153
 H      0.1825235938      1.5779593611     -2.9325218486
 H      0.7033160106      3.6874977971     -1.8068496913
60
# ORCA AIMD Position Step 6, t=3.00 fs, E_Pot=-1207.39914156 Hartree, Unit is Angstrom
 C      0.8018919698     -1.5933545054     -6.0501767916
 C      0.8958408891     -1.8985537206     -4.5365458582
 O      0.5492712521     -0.7806508388     -3.7944106093
 C     -0.0492842260     -3.0932284264     -4.2011289890
 C      2.3540482895     -2.2080356533     -4.0962852782
 C      2.7434547843     -3.6813420386     -4.0400850693
 C      3.4398927707     -1.4346794551     -4.8603880505
 O      2.3644154524     -1.7124739427     -2.7303930995
 B      1.2974803129     -0.7722238693     -2.6672420583
 C      1.0835740149      0.1229520079     -1.4636579385
 C      2.0727203060      0.0937133589     -0.3691675631
 C      2.0501541374      0.7949194775      0.8059855064
 H      2.9199124477      0.6146249036      1.5195717877
 C      0.9449605435      1.8251109416      1.1496850662
 H      1.2108970125      2.2297714600      2.1809270373
 C     -0.3753166814      1.1274050135      1.2704111647
 B     -1.1155406150      1.1274158860      2.6442155759
 O     -0.6428350133      1.8116904267      3.7263067003
 C     -1.4576872826      1.4332505262      4.9133866702
 C     -1.6006518730      2.5803241084      5.8190523143
 C     -0.7309322668      0.2347593544      5.5816514719
 C     -2.8050997308      0.9093041808      4.1874609031
 C     -3.7747134137      2.0712782975      3.9358642062
 C     -3.4734947774     -0.2434542031      4.8887155532
 O     -2.3101180861      0.4651354983      2.8770293339
 C     -0.9637365919      0.5608866184      0.2168195935
 C     -0.4556076330      0.3942274853     -1.1614464562
 H     -1.1046950350     -0.1531304167     -1.8104789953
 C      0.3431601507      1.5058995146     -1.8316866368
 C      0.6953331636      2.8088517557     -1.1567311895
 C      0.9242052770      2.9604325898      0.1483440930
 H      1.1676746397      4.0108793010      0.4485770453
 H     -0.2003889917     -1.3527150488     -6.4242375118
 H      1.1470039702     -2.3365400466     -6.6420070377
 H      1.3988510174     -0.7172774581     -6.2321433975
 H     -1.1286406227     -2.7459102224     -4.3040791663
 H     -0.0369535971     -3.3900643267     -3.2282859291
 H      0.0314602756     -3.9917865139     -4.8560286848
 H      2.8199130320     -4.1797018881     -5.0235625040
 H      2.1640374516     -4.2568970730     -3.3179570071
 H      3.6961553629     -3.8168883118     -3.5875275946
 H      3.5577434616     -1.8514597617     -5.8615081733
 H      4.3290324677     -1.5066613878     -4.2927975181
 H      3.0352013310     -0.3401898347     -4.8984366812
 H      2.9072694566     -0.5725258691     -0.4942222342
 H     -0.6837511505      2.8753317517      6.2595321812
 H     -2.2506055500      2.3035962490      6.6328994235
 H     -2.0204512490      3.3846476625      5.3183730027
 H      0.3560107398      0.5253544145      5.8251498559
 H     -0.5807201254     -0.6686201955      4.9236777106
 H     -1.2661883248     -0.1388793966      6.4838601095
 H     -4.2419390111      2.3263705962      4.8523943688
 H     -4.5840171875      1.6731762370      3.2991269612
 H     -3.2628596577      2.9007709408      3.4451821074
 H     -3.8183471102     -0.0291529930      5.8779295463
 H     -2.8170405792     -1.1257613426      4.8366819302
 H     -4.4253477302     -0.4536647027      4.3209816713
 H     -1.9508175239      0.0951790977      0.3289670945
 H      0.1868907326      1.5784325624     -2.9291540127
 H      0.7042246530      3.6908466711     -1.7990734719
60
# ORCA AIMD Position Step 7, t=3.50 fs, E_Pot=-1207.39486289 Hartree, Unit is Angstrom
 C      0.8049818724     -1.5904842314     -6.0462065705
 C      0.8951980981     -1.8910658792     -4.5291614108
 O      0.5532984357     -0.7798793798     -3.7938825969
 C     -0.0449462633     -3.0966109419     -4.2002586981
 C      2.3510061650     -2.2043737868     -4.0978984292
 C      2.7397725263     -3.6775822354     -4.0418233685
 C      3.4400144107     -1.4351835799     -4.8621786402
 O      2.3669739398     -1.7134029246     -2.7311892283
 B      1.2945775910     -0.7709562643     -2.6669890948
 C      1.0846086441      0.1172821511     -1.4647285047
 C      2.0751446506      0.0938266400     -0.3714198335
 C      2.0522438541      0.7921259999      0.8065331750
 H      2.9209888853      0.6127508705      1.5098279744
 C      0.9416028396      1.8254259159      1.1490764763
 H      1.2073743748      2.2227194029      2.1756055067
 C     -0.3728745593      1.1256053922      1.2700030379
 B     -1.1144536740      1.1266679168      2.6448365669
 O     -0.6438635081      1.8147189909      3.7220322323
 C     -1.4579637753      1.4393409933      4.9167734947
 C     -1.5983888279      2.5792370972      5.8184216843
 C     -0.7342713733      0.2315092813      5.5798828322
 C     -2.8071124133      0.9099513539      4.1877111902
 C     -3.7730855846      2.0738655531      3.9342277032
 C     -3.4714022290     -0.2408267838      4.8905820136
 O     -2.3090189356      0.4639833659      2.8763854761
 C     -0.9627384551      0.5687997157      0.2181359551
 C     -0.4556898139      0.3941404427     -1.1614895859
 H     -1.1056206639     -0.1542832563     -1.8037668347
 C      0.3395054857      1.5076753739     -1.8318122113
 C      0.6973934327      2.8141853834     -1.1541473229
 C      0.9213799335      2.9625928800      0.1490589195
 H      1.1672894141      4.0081871781      0.4389201664
 H     -0.1852656134     -1.3431649493     -6.4378989219
 H      1.1568795707     -2.3381958017     -6.6446530192
 H      1.4075556834     -0.7200335256     -6.2186079159
 H     -1.1207176767     -2.7535582283     -4.2902134762
 H     -0.0404169864     -3.4040557600     -3.2207563023
 H      0.0245088330     -3.9873121683     -4.8568379441
 H      2.8352087584     -4.1800925574     -5.0168910852
 H      2.1706670070     -4.2529231970     -3.3164343054
 H      3.6860091929     -3.8160255117     -3.5743521412
 H      3.5545291736     -1.8555584720     -5.8572988165
 H      4.3241366373     -1.5081132525     -4.2875461104
 H      3.0242613430     -0.3515276791     -4.8963996965
 H      2.9121185095     -0.5651439356     -0.4928538826
 H     -0.6864151600      2.8804050612      6.2616372513
 H     -2.2439753883      2.2972143192      6.6293926295
 H     -2.0280591445      3.3813441778      5.3165750461
 H      0.3504074527      0.5098832790      5.8188826291
 H     -0.5809238284     -0.6670873640      4.9262969899
 H     -1.2699920051     -0.1477374182      6.4730091899
 H     -4.2404957150      2.3197277557      4.8530911644
 H     -4.5814071008      1.6725238937      3.3075209907
 H     -3.2608394108      2.8963854594      3.4435742394
 H     -3.8209812057     -0.0346067249      5.8782389605
 H     -2.8174810686     -1.1177134553      4.8243135006
 H     -4.4214486437     -0.4398477068      4.3274333113
 H     -1.9475471391      0.1090993304      0.3219835323
 H      0.1913684643      1.5789496235     -2.9235239837
 H      0.7053015484      3.6936053785     -1.7910897863
60
# ORCA AIMD Position Step 8, t=4.00 fs, E_Pot=-1207.39274806 Hartree, Unit is Angstrom
 C      0.8078970941     -1.5871479117     -6.0417794990
 C      0.8945094215     -1.8840352372     -4.5221618958
 O      0.5572142060     -0.7789472580     -3.7933065969
 C     -0.0409314788     -3.0997430813     -4.1998667406
 C      2.3481123396     -2.2008014143     -4.0994054124
 C      2.7359827558     -3.6738353744     -4.0435852644
 C      3.4395600486     -1.4353810399     -4.8639884137
 O      2.3693376085     -1.7141725565     -2.7320564596
 B      1.2921495313     -0.7700052583     -2.6666650384
 C      1.0854297708      0.1119087871     -1.4656080644
 C      2.0774882962      0.0941457580     -0.3733826610
 C      2.0543975191      0.7892465213      0.8068725605
 H      2.9190785974      0.6118655747      1.4981775485
 C      0.9385673479      1.8257280605      1.1487061630
 H      1.2029995999      2.2150677256      2.1673454785
 C     -0.3704891104      1.1238724289      1.2697153916
 B     -1.1134485346      1.1258631151      2.6454096308
 O     -0.6449725593      1.8177729097      3.7178962615
 C     -1.4581383289      1.4449485213      4.9197178932
 C     -1.5961605762      2.5779767582      5.8179265902
 C     -0.7373592487      0.2281904885      5.5780656815
 C     -2.8089016234      0.9108455345      4.1879370182
 C     -3.7713870859      2.0761523419      3.9324104624
 C     -3.4694577835     -0.2382624712      4.8920925493
 O     -2.3078882934      0.4628818624      2.8758869560
 C     -0.9618133071      0.5765921054      0.2192126272
 C     -0.4554756818      0.3943234598     -1.1614099237
 H     -1.1074273351     -0.1560097359     -1.7980088304
 C      0.3359093149      1.5094150557     -1.8319347890
 C      0.6993385831      2.8192546840     -1.1516493075
 C      0.9186080261      2.9649063073      0.1498028489
 H      1.1664465387      4.0032061960      0.4298577756