60
# ORCA AIMD Force Step 0, t=0.00 fs, E_Pot=-1207.45275845 Hartree, Unit is Hartree/Angstrom
 C      0.0000000000      0.0000000000      0.0000000000
 C      0.0000000000      0.0000000000      0.0000000000
 O      0.0000000000      0.0000000000      0.0000000000
 C      0.0000000000      0.0000000000      0.0000000000
 C      0.0000000000      0.0000000000      0.0000000000
 C      0.0000000000      0.0000000000      0.0000000000
 C      0.0000000000      0.0000000000      0.0000000000
 O      0.0000000000      0.0000000000      0.0000000000
 B      0.0000000000      0.0000000000      0.0000000000
 C      0.0000000000      0.0000000000      0.0000000000
 C      0.0000000000      0.0000000000      0.0000000000
 C      0.0000000000      0.0000000000      0.0000000000
 H      0.0000000000      0.0000000000      0.0000000000
 C      0.0000000000      0.0000000000      0.0000000000
 H      0.0000000000      0.0000000000      0.0000000000
 C      0.0000000000      0.0000000000      0.0000000000
 B      0.0000000000      0.0000000000      0.0000000000
 O      0.0000000000      0.0000000000      0.0000000000
 C      0.0000000000      0.0000000000      0.0000000000
 C      0.0000000000      0.0000000000      0.0000000000
 C      0.0000000000      0.0000000000      0.0000000000
 C      0.0000000000      0.0000000000      0.0000000000
 C      0.0000000000      0.0000000000      0.0000000000
 C      0.0000000000      0.0000000000      0.0000000000
 O      0.0000000000      0.0000000000      0.0000000000
 C      0.0000000000      0.0000000000      0.0000000000
 C      0.0000000000      0.0000000000      0.0000000000
 H      0.0000000000      0.0000000000      0.0000000000
 C      0.0000000000      0.0000000000      0.0000000000
 C      0.0000000000      0.0000000000      0.0000000000
 C      0.0000000000      0.0000000000      0.0000000000
 H      0.0000000000      0.0000000000      0.0000000000
 H      0.0000000000      0.0000000000      0.0000000000
 H      0.0000000000      0.0000000000      0.0000000000
 H      0.0000000000      0.0000000000      0.0000000000
 H      0.0000000000      0.0000000000      0.0000000000
 H      0.0000000000      0.0000000000      0.0000000000
 H      0.0000000000      0.0000000000      0.0000000000
 H      0.0000000000      0.0000000000      0.0000000000
 H      0.0000000000      0.0000000000      0.0000000000
 H      0.0000000000      0.0000000000      0.0000000000
 H      0.0000000000      0.0000000000      0.0000000000
 H      0.0000000000      0.0000000000      0.0000000000
 H      0.0000000000      0.0000000000      0.0000000000
 H      0.0000000000      0.0000000000      0.0000000000
 H      0.0000000000      0.0000000000      0.0000000000
 H      0.0000000000      0.0000000000      0.0000000000
 H      0.0000000000      0.0000000000      0.0000000000
 H      0.0000000000      0.0000000000      0.0000000000
 H      0.0000000000      0.0000000000      0.0000000000
 H      0.0000000000      0.0000000000      0.0000000000
 H      0.0000000000      0.0000000000      0.0000000000
 H      0.0000000000      0.0000000000      0.0000000000
 H      0.0000000000      0.0000000000      0.0000000000
 H      0.0000000000      0.0000000000      0.0000000000
 H      0.0000000000      0.0000000000      0.0000000000
 H      0.0000000000      0.0000000000      0.0000000000
 H      0.0000000000      0.0000000000      0.0000000000
 H      0.0000000000      0.0000000000      0.0000000000
 H      0.0000000000      0.0000000000      0.0000000000
60
# ORCA AIMD Force Step 1, t=0.50 fs, E_Pot=-1207.44976117 Hartree, Unit is Hartree/Angstrom
 C     -0.0117569464      0.0244010144      0.0125546681
 C     -0.0001436433     -0.0111714982     -0.0088567566
 O      0.0076077826     -0.0094943374      0.0038803317
 C     -0.0231700953      0.0058370925     -0.0280127828
 C      0.0019503571     -0.0004370355      0.0063528431
 C     -0.0039115858     -0.0097969023     -0.0006590746
 C     -0.0173173103      0.0215563273     -0.0051338126
 O     -0.0214037607      0.0109232547     -0.0175844688
 B      0.0150345818     -0.0128956471     -0.0026649135
 C     -0.0132127496      0.0156767667      0.0062401875
 C      0.0014840477      0.0145351371      0.0287849464
 C      0.0132312357     -0.0172608262     -0.0167074433
 H     -0.0284554477      0.0066749791     -0.0236376012
 C      0.0130093332      0.0039306424      0.0186028029
 H     -0.0074322836     -0.0108657855     -0.0298003678
 C     -0.0098015725     -0.0081532759     -0.0200419368
 B     -0.0065540010     -0.0015175850      0.0052319272
 O     -0.0181425030     -0.0122369104      0.0081938928
 C      0.0023347477     -0.0156742411     -0.0181121375
 C     -0.0018017221     -0.0058918793      0.0095908066
 C      0.0185997002     -0.0085019581      0.0029521151
 C      0.0111177766      0.0074977617     -0.0032962853
 C     -0.0022103140     -0.0061553498     -0.0127843402
 C     -0.0108912083     -0.0127995297     -0.0135385141
 O      0.0094997277      0.0140322995      0.0185516764
 C     -0.0009538476      0.0001718892      0.0136993580
 C      0.0107052244      0.0069035963     -0.0054454707
 H      0.0100144617      0.0091179916      0.0105832890
 C     -0.0007866780     -0.0087755160     -0.0098523204
 C      0.0007794501      0.0007896032      0.0142852050
 C      0.0005530213      0.0132511763     -0.0196749731
 H     -0.0062498326     -0.0300342168     -0.0071086238
 H      0.0167150170     -0.0043647623      0.0090018741
 H      0.0051112402     -0.0105079502     -0.0046453030
 H     -0.0068777872     -0.0116972116      0.0027770215
 H      0.0299389869     -0.0081746942      0.0013147641
 H      0.0047275538     -0.0026386652      0.0104967210
 H     -0.0001498775      0.0228496589      0.0135890298
 H     -0.0026200327      0.0099442698      0.0194827169
 H      0.0056691219      0.0102873987     -0.0149616982
 H     -0.0049220236      0.0055147400     -0.0047010600
 H     -0.0024284880      0.0081310196      0.0172876864
 H     -0.0068728064      0.0015519473     -0.0048398754
 H      0.0141459056     -0.0364126165      0.0005435918
 H     -0.0130335605      0.0104790133      0.0015765315
 H     -0.0065460525     -0.0036032805     -0.0046390036
 H      0.0080325247      0.0028467014     -0.0108398336
 H     -0.0004965678      0.0000326823     -0.0000726670
 H     -0.0337348007     -0.0085003489     -0.0055937427
 H     -0.0057306992      0.0246627461      0.0146243915
 H      0.0121892556      0.0095752647     -0.0202654357
 H      0.0050767033     -0.0000003080     -0.0061998029
 H      0.0170873735      0.0082532969      0.0124885110
 H     -0.0098717931     -0.0148949161      0.0089859852
 H      0.0062462564     -0.0016803796     -0.0095091003
 H     -0.0141948936      0.0181741214      0.0009282754
 H      0.0245889781      0.0054826742      0.0136426388
 H      0.0209672081      0.0105134004     -0.0011769127
 H      0.0045286364     -0.0014525959      0.0302480027
 H      0.0001070176     -0.0186831659      0.0135851946
60
# ORCA AIMD Force Step 2, t=1.00 fs, E_Pot=-1207.44185072 Hartree, Unit is Hartree/Angstrom
 C     -0.0236634410      0.0481115003      0.0333202006
 C     -0.0023447957     -0.0255354209     -0.0226371891
 O     -0.0000027874     -0.0031064303      0.0043299609
 C     -0.0393535061      0.0163744517     -0.0595944752
 C      0.0075569974     -0.0043508699      0.0094967140
 C     -0.0097660203     -0.0125466410     -0.0029374585
 C     -0.0389288615      0.0359750635     -0.0081221156
 O     -0.0285848894      0.0172849199     -0.0172579248
 B      0.0284323794     -0.0215300004     -0.0007337273
 C     -0.0190318588      0.0255706266      0.0111066296
 C     -0.0012921179      0.0190218935      0.0358306434
 C      0.0188345333     -0.0182154960     -0.0163773967
 H     -0.0385524290      0.0097728604     -0.0303461704
 C      0.0245033751      0.0054772911      0.0312030569
 H     -0.0103578115     -0.0134330086     -0.0399268646
 C     -0.0114065581     -0.0040997037     -0.0133664521
 B     -0.0084916383     -0.0027263076      0.0030789735
 O     -0.0182945138     -0.0108853183      0.0154619694
 C      0.0053481696     -0.0305640479     -0.0306624163
 C     -0.0033220155     -0.0180815792      0.0156809857
 C      0.0311883455     -0.0120247722      0.0037037671
 C      0.0173006516      0.0140976512     -0.0039547701
 C     -0.0001525961     -0.0167745374     -0.0223829388
 C     -0.0174870360     -0.0187935652     -0.0283669916
 O      0.0087849761      0.0146341627      0.0222470572
 C     -0.0067660203     -0.0086274993      0.0041650089
 C      0.0184210380      0.0143435362     -0.0009337322
 H      0.0062600590      0.0063698899      0.0061927318
 C      0.0017476325     -0.0094369824     -0.0143049894
 C     -0.0038014365     -0.0072679815      0.0061403609
 C      0.0047168295      0.0221835099     -0.0144183124
 H     -0.0078155804     -0.0377686450     -0.0060819721
 H      0.0141559848     -0.0046472415      0.0123402506
 H      0.0176567727     -0.0377611755     -0.0229126255
 H     -0.0037907194     -0.0062004085      0.0003300192
 H      0.0387311933     -0.0095204948     -0.0003476703
 H      0.0102564342     -0.0115245626      0.0423112313
 H      0.0019500144      0.0280502295      0.0158812437
 H     -0.0058415961      0.0109665982      0.0207548034
 H     -0.0002095668      0.0092669605     -0.0168115613
 H      0.0089848495      0.0081567933     -0.0019859691
 H     -0.0011772214      0.0094865546      0.0155396257
 H      0.0044333672      0.0024121890      0.0003652562
 H      0.0230294850     -0.0499983536     -0.0005412465
 H     -0.0097656505      0.0064617899     -0.0007092351
 H      0.0048675887     -0.0010330488     -0.0010477956
 H      0.0036085855      0.0018273722     -0.0060571118
 H     -0.0081003751      0.0175108641     -0.0097387877
 H     -0.0462298826     -0.0103000373     -0.0058391298
 H     -0.0091558872      0.0318574484      0.0167188706
 H      0.0153841814      0.0126396134     -0.0226432953
 H      0.0005883103      0.0065540143      0.0042730610
 H      0.0190054128      0.0103488815      0.0116313972
 H     -0.0109704385     -0.0133652278      0.0091937269
 H      0.0065867731      0.0009262393     -0.0002944465
 H     -0.0168337924      0.0188766616      0.0026688183
 H      0.0312416982      0.0045931356      0.0163920594
 H      0.0221192375      0.0111257246      0.0010091773
 H      0.0046611978     -0.0013181203      0.0364233916
 H      0.0005884643     -0.0194526388      0.0131160679
60
# ORCA AIMD Force Step 3, t=1.50 fs, E_Pot=-1207.43049845 Hartree, Unit is Hartree/Angstrom
 C     -0.0353276257      0.0707690937      0.0543064767
 C     -0.0041526828     -0.0404257906     -0.0364139193
 O     -0.0078409230      0.0039305180      0.0049920902
 C     -0.0522587869      0.0277035165     -0.0888526942
 C      0.0131783124     -0.0083121929      0.0125395271
 C     -0.0148397624     -0.0139949340     -0.0051163482
 C     -0.0595754858      0.0468702993     -0.0101236157
 O     -0.0351798862      0.0231491824     -0.0168573047
 B      0.0411976391     -0.0295572164      0.0013582095
 C     -0.0244886140      0.0350785044      0.0161661720
 C     -0.0049254916      0.0236808345      0.0421927998
 C      0.0217743677     -0.0182364651     -0.0178056514
 H     -0.0458500519      0.0122375539     -0.0345416334
 C      0.0351372723      0.0058538127      0.0405606815
 H     -0.0124972379     -0.0147095209     -0.0470086790
 C     -0.0127547445      0.0001042296     -0.0062348270
 B     -0.0102954507     -0.0039015253      0.0007727823
 O     -0.0182447009     -0.0094400925      0.0225023638
 C      0.0083411033     -0.0455679860     -0.0430621133
 C     -0.0044694324     -0.0296473068      0.0210081100
 C      0.0411646033     -0.0141447514      0.0035810288
 C      0.0233314590      0.0205491672     -0.0045013228
 C      0.0025055619     -0.0274998656     -0.0304815103
 C     -0.0225875009     -0.0228753278     -0.0421424334
 O      0.0079896871      0.0151298182      0.0257405917
 C     -0.0112630750     -0.0167682048     -0.0059715993
 C      0.0265584556      0.0221714570      0.0042479988
 H      0.0019068946      0.0030867295      0.0012262995
 C      0.0046786870     -0.0100012298     -0.0163174919
 C     -0.0084093304     -0.0164641529     -0.0012305343
 C      0.0083697985      0.0283532286     -0.0096329907
 H     -0.0088561838     -0.0428249964     -0.0041680378
 H      0.0107434712     -0.0047009718      0.0152100954
 H      0.0302200813     -0.0646349815     -0.0411528512
 H     -0.0002638712     -0.0001915086     -0.0021448883
 H      0.0445654329     -0.0098605073     -0.0024400928
 H      0.0150802257     -0.0205617186      0.0732833360
 H      0.0042877899      0.0314230481      0.0170354948
 H     -0.0089110932      0.0114645639      0.0207713930
 H     -0.0066569709      0.0075968747     -0.0177811140
 H      0.0225541063      0.0106471502      0.0009735583
 H      0.0002155855      0.0102148596      0.0126567463
 H      0.0158267362      0.0030936873      0.0058758705
 H      0.0307906370     -0.0592665090     -0.0017977487
 H     -0.0057472911      0.0019207292     -0.0030341607
 H      0.0164712037      0.0018108861      0.0027464465
 H     -0.0012790727      0.0005573695     -0.0006348635
 H     -0.0158815493      0.0346585075     -0.0192281592
 H     -0.0553622069     -0.0108543310     -0.0053340777
 H     -0.0122374971      0.0368798273      0.0172853521
 H      0.0175215178      0.0150804759     -0.0233885539
 H     -0.0039787766      0.0128639525      0.0148805845
 H      0.0196278344      0.0117939914      0.0097329692
 H     -0.0113369296     -0.0107520132      0.0087992961
 H      0.0066352859      0.0035167739      0.0092165568
 H     -0.0184168613      0.0182820515      0.0044440616
 H      0.0356603433      0.0030992765      0.0177814714
 H      0.0216805960      0.0109436523      0.0033771655
 H      0.0043195053     -0.0010338477      0.0399610165
 H      0.0010690994     -0.0188361471      0.0116119357
60
# ORCA AIMD Force Step 4, t=2.00 fs, E_Pot=-1207.41801217 Hartree, Unit is Hartree/Angstrom
 C     -0.0446301293      0.0883052882      0.0719576608
 C     -0.0055104782     -0.0556827954     -0.0499975457
 O     -0.0158441734      0.0115396548      0.0058826491
 C     -0.0615868480      0.0384575149     -0.1105167957
 C      0.0187386720     -0.0123489902      0.0154619102
 C     -0.0181975784     -0.0143037948     -0.0065732984
 C     -0.0778462640      0.0543794538     -0.0106668742
 O     -0.0411681950      0.0285107190     -0.0163937557
 B      0.0532326937     -0.0369265324      0.0036012880
 C     -0.0295044965      0.0441161260      0.0213777468
 C     -0.0090933397      0.0281943452      0.0477296721
 C      0.0220194937     -0.0173121023     -0.0209048560
 H     -0.0502699825      0.0140471038     -0.0362642037
 C      0.0447829928      0.0051245847      0.0466113028
 H     -0.0137982807     -0.0147320845     -0.0509688294
 C     -0.0138749225      0.0043675711      0.0011690154
 B     -0.0119390471     -0.0050126922     -0.0016598133
 O     -0.0179982677     -0.0079427201      0.0292594768
 C      0.0112658473     -0.0605025631     -0.0551940653
 C     -0.0055333240     -0.0384320251      0.0250236512
 C      0.0484592593     -0.0146004404      0.0026170237
 C      0.0291939961      0.0267827274     -0.0049010834
 C      0.0052541067     -0.0377843584     -0.0360543072
 C     -0.0263621890     -0.0248560649     -0.0539794938
 O      0.0071159759      0.0155134949      0.0290095000
 C     -0.0143681656     -0.0241420101     -0.0164381928
 C      0.0346960901      0.0300255724      0.0096858296
 H     -0.0026816233     -0.0004299770     -0.0039304130
 C      0.0079706331     -0.0104450998     -0.0157968249
 C     -0.0129821968     -0.0266727100     -0.0077183438
 C      0.0114337731      0.0315628283     -0.0053866672
 H     -0.0093187607     -0.0450578252     -0.0014220993
 H      0.0065939863     -0.0045505237      0.0175409431
 H      0.0407820122     -0.0866548533     -0.0559698566
 H      0.0034749633      0.0059256676     -0.0045544343
 H      0.0473930506     -0.0092246699     -0.0048169481
 H      0.0189540929     -0.0282384210      0.0981352225
 H      0.0068134626      0.0328192510      0.0169243819
 H     -0.0117211103      0.0113969064      0.0195079199
 H     -0.0134075335      0.0053970845     -0.0179612365
 H      0.0345189029      0.0130542212      0.0036938274
 H      0.0017118821      0.0103338572      0.0088019636
 H      0.0261342830      0.0036469708      0.0109969417
 H      0.0372491198     -0.0643977233     -0.0031788895
 H     -0.0013323915     -0.0028195898     -0.0053120720
 H      0.0272468145      0.0046586844      0.0063027094
 H     -0.0063231898     -0.0008460993      0.0050771213
 H     -0.0227975427      0.0493805997     -0.0272411610
 H     -0.0610659412     -0.0102669732     -0.0041261920
 H     -0.0149126128      0.0396099918      0.0162794295
 H      0.0185389906      0.0168249546     -0.0224638599
 H     -0.0080636600      0.0185390381      0.0244985240
 H      0.0189170568      0.0125453338      0.0068436951
 H     -0.0109906880     -0.0071617812      0.0078244452
 H      0.0066254398      0.0058956672      0.0182210897
 H     -0.0188851260      0.0163505042      0.0061828263
 H      0.0377299047      0.0010717774      0.0177989032
 H      0.0196499160      0.0099787346      0.0058463745
 H      0.0035377195     -0.0006123564      0.0407373711
 H      0.0015368647     -0.0168855781      0.0091190488
60
# ORCA AIMD Force Step 5, t=2.50 fs, E_Pot=-1207.40694879 Hartree, Unit is Hartree/Angstrom
 C     -0.0492376999      0.0964598884      0.0823667288
 C     -0.0064073548     -0.0710522105     -0.0631896961
 O     -0.0239174906      0.0195957621      0.0070012615
 C     -0.0673395905      0.0470018242     -0.1192490430
 C      0.0241623338     -0.0164885518      0.0182390410
 C     -0.0189570860     -0.0137431700     -0.0066256954
 C     -0.0922843245      0.0586090100     -0.0092456070
 O     -0.0465228946      0.0333555531     -0.0158792772
 B      0.0644249112     -0.0435677249      0.0059953737
 C     -0.0339996738      0.0525650558      0.0266965893
 C     -0.0133867525      0.0321932893      0.0522820062
 C      0.0195837477     -0.0154574164     -0.0255619615
 H     -0.0517675491      0.0151933823     -0.0355737612
 C      0.0533103154      0.0033654196      0.0493544861
 H     -0.0142211173     -0.0135488878     -0.0517738512
 C     -0.0147920796      0.0085673248      0.0086210360
 B     -0.0134068823     -0.0060355827     -0.0041623664
 O     -0.0175611959     -0.0064322536      0.0356601028
 C      0.0140751999     -0.0751043089     -0.0668943378
 C     -0.0069038662     -0.0421753178      0.0272349052
 C      0.0530327891     -0.0132087094      0.0008716467
 C      0.0348438098      0.0327168111     -0.0051351337
 C      0.0075338527     -0.0470650574     -0.0380839081
 C     -0.0290436947     -0.0246351982     -0.0629436452
 O      0.0061760719      0.0157747175      0.0320296259
 C     -0.0160769778     -0.0306473225     -0.0269267239
 C      0.0423466920      0.0374742418      0.0148745722
 H     -0.0070596793     -0.0038078224     -0.0088194108
 C      0.0115518742     -0.0107322739     -0.0127130962
 C     -0.0174498546     -0.0376789109     -0.0132846591
 C      0.0138379681      0.0316969585     -0.0017507069
 H     -0.0091617087     -0.0443884206      0.0020853040
 H      0.0018978919     -0.0042371231      0.0192958533
 H      0.0471085847     -0.0990842833     -0.0636545323
 H      0.0071374416      0.0116751936     -0.0068023094
 H      0.0472448511     -0.0076640340     -0.0073256962
 H      0.0218660838     -0.0328502632      0.1114773987
 H      0.0094683825      0.0321698988      0.0154706362
 H     -0.0141722807      0.0107617989      0.0170113124
 H     -0.0201464492      0.0028326581     -0.0175033676
 H      0.0436251669      0.0154682651      0.0056228287
 H      0.0032645592      0.0099005616      0.0042137189
 H      0.0341066525      0.0041440228      0.0149320800
 H      0.0422700836     -0.0656056130     -0.0046479966
 H      0.0030439251     -0.0073782699     -0.0074541171
 H      0.0360559841      0.0071682555      0.0091035261
 H     -0.0111443288     -0.0022281382      0.0106357547
 H     -0.0276470491      0.0594701506     -0.0323899195
 H     -0.0633191184     -0.0086457524     -0.0022620405
 H     -0.0171281810      0.0399728726      0.0136827865
 H      0.0184042636      0.0178189788     -0.0198841500
 H     -0.0110641225      0.0232153343      0.0319167586
 H      0.0168958415      0.0125924902      0.0030668195
 H     -0.0099990650     -0.0027738274      0.0063323293
 H      0.0068420054      0.0078673035      0.0258337869
 H     -0.0182382876      0.0131138888      0.0078088316
 H      0.0374049236     -0.0014010293      0.0164757476
 H      0.0161019147      0.0082848245      0.0083273887
 H      0.0023646634     -0.0000685792      0.0386993584
 H      0.0019820235     -0.0137473714      0.0057548540
60
# ORCA AIMD Force Step 6, t=3.00 fs, E_Pot=-1207.39914156 Hartree, Unit is Hartree/Angstrom
 C     -0.0474892832      0.0927212648      0.0828980150
 C     -0.0068356568     -0.0862786169     -0.0758129877
 O     -0.0319589338      0.0279490225      0.0083519029
 C     -0.0697683149      0.0521369212     -0.1118767210
 C      0.0293714087     -0.0207453918      0.0208023170
 C     -0.0165022064     -0.0126592261     -0.0046200846
 C     -0.1016199572      0.0595438110     -0.0054539339
 O     -0.0512399247      0.0376922584     -0.0152995061
 B      0.0746686076     -0.0494339360      0.0085094061
 C     -0.0379553700      0.0603770031      0.0320235498
 C     -0.0173476389      0.0353080216      0.0557510295
 C      0.0144619055     -0.0126615169     -0.0316615817
 H     -0.0503045090      0.0156707872     -0.0325266887
 C      0.0606313341      0.0006161301      0.0487636051
 H     -0.0137311911     -0.0112035941     -0.0493898672
 C     -0.0155355107      0.0126112071      0.0159139349
 B     -0.0146842625     -0.0069378062     -0.0066747118
 O     -0.0169558070     -0.0049556146      0.0416535344
 C      0.0167385298     -0.0891443180     -0.0780463993
 C     -0.0089359872     -0.0391625704      0.0274926840
 C      0.0548300815     -0.0098999606     -0.0015585190
 C      0.0402592762      0.0382607046     -0.0051916854
 C      0.0088499500     -0.0548628796     -0.0357985864
 C     -0.0308655191     -0.0222321257     -0.0682038365
 O      0.0051747813      0.0159161551      0.0347832188
 C     -0.0164604042     -0.0362458036     -0.0371307413
 C      0.0489864889      0.0440568667      0.0192763815
 H     -0.0107370764     -0.0066351037     -0.0129566796
 C      0.0153743058     -0.0108662111     -0.0071145148
 C     -0.0217630889     -0.0492064137     -0.0179554063
 C      0.0155358797      0.0287089127      0.0012336290
 H     -0.0083582660     -0.0408049369      0.0062678340
 H     -0.0030999422     -0.0038234383      0.0204780581
 H      0.0476330559     -0.0988764855     -0.0617439752
 H      0.0103811896      0.0165348474     -0.0088087785
 H      0.0441860474     -0.0052452469     -0.0098075444
 H      0.0240375627     -0.0331401138      0.1100141661
 H      0.0121922902      0.0294604852      0.0126587847
 H     -0.0161871177      0.0095947353      0.0133862982
 H     -0.0265293927      0.0001070004     -0.0166098464
 H      0.0488816755      0.0179604770      0.0062388867
 H      0.0048233786      0.0090100316     -0.0007970208
 H      0.0386713097      0.0046571162      0.0169309436
 H      0.0457305922     -0.0630215101     -0.0061752043
 H      0.0069202878     -0.0113784705     -0.0093787303
 H      0.0418521382      0.0089777974      0.0106508543
 H     -0.0153348442     -0.0034007170      0.0155557911
 H     -0.0293885601      0.0632591585     -0.0336009686
 H     -0.0621125531     -0.0060867785      0.0002139613
 H     -0.0188523029      0.0379732458      0.0095240202
 H      0.0171318710      0.0180454169     -0.0157468240
 H     -0.0124671041      0.0266304254      0.0360819803
 H      0.0136551652      0.0119651074     -0.0014422241
 H     -0.0084736395      0.0021747230      0.0044266789
 H      0.0075709471      0.0092779738      0.0312289390
 H     -0.0165330673      0.0086850104      0.0092589302
 H      0.0346902607     -0.0042265239      0.0138746182
 H      0.0111870984      0.0059457339      0.0107325658
 H      0.0008586576      0.0005795448      0.0338863956
 H      0.0023953680     -0.0096430761      0.0016898400
60
# ORCA AIMD Force Step 7, t=3.50 fs, E_Pot=-1207.39486289 Hartree, Unit is Hartree/Angstrom
 C     -0.0391874054      0.0778167181      0.0734992389
 C     -0.0067952044     -0.1011247162     -0.0877388191
 O     -0.0398819428      0.0364319124      0.0099281565
 C     -0.0691844626      0.0536516891     -0.0890482504
 C      0.0342766111     -0.0250773790      0.0231803095
 C     -0.0106868194     -0.0113968074     -0.0001081481
 C     -0.1050023330      0.0569603637      0.0008198369
 O     -0.0553722677      0.0415625091     -0.0146662817
 B      0.0839436490     -0.0545429911      0.0110838444
 C     -0.0413007405      0.0675372417      0.0372977276
 C     -0.0205017297      0.0371459964      0.0580347524
 C      0.0065982089     -0.0089142324     -0.0391805773
 H     -0.0457831680      0.0154626202     -0.0271204948
 C      0.0666508710     -0.0030899302      0.0447795183
 H     -0.0122891828     -0.0077242500     -0.0437558121
 C     -0.0161769241      0.0164465125      0.0228835371
 B     -0.0157367182     -0.0076790554     -0.0091857568
 O     -0.0162108985     -0.0035644968      0.0472325581
 C      0.0191963039     -0.1024425416     -0.0885742352
 C     -0.0117686839     -0.0288939784      0.0261556135
 C      0.0537026818     -0.0046744000     -0.0045642457
 C      0.0454658451      0.0433460003     -0.0050484256
 C      0.0089311243     -0.0608445620     -0.0289192247
 C     -0.0319567497     -0.0177921548     -0.0691922118
 O      0.0041037257      0.0159511740      0.0372559398
 C     -0.0156693890     -0.0409778142     -0.0467389097
 C      0.0540635493      0.0493027090      0.0224257122
 H     -0.0132544342     -0.0085187964     -0.0159117427
 C      0.0194246993     -0.0108483658      0.0008468494
 C     -0.0258830183     -0.0608811424     -0.0218220557
 C      0.0165102483      0.0226418231      0.0035710183
 H     -0.0069041972     -0.0343756543      0.0110190654
 H     -0.0081127310     -0.0033896228      0.0211407178
 H      0.0422201250     -0.0862323418     -0.0503329297
 H      0.0128390991      0.0200069112     -0.0105169611
 H      0.0382955890     -0.0020449033     -0.0121113047
 H      0.0257629150     -0.0288868948      0.0941810440
 H      0.0149181768      0.0247599671      0.0085514914
 H     -0.0177171741      0.0079631661      0.0087880464
 H     -0.0322123382     -0.0025524099     -0.0155115531
 H      0.0498001679      0.0205323524      0.0051886820
 H      0.0063377382      0.0077914781     -0.0058726746
 H      0.0392118179      0.0052390188      0.0164899518
 H      0.0474686168     -0.0565980083     -0.0077378853
 H      0.0097929804     -0.0144407342     -0.0110096942
 H      0.0439403916      0.0097859314      0.0106007195
 H     -0.0185257628     -0.0041729054      0.0193932315
 H     -0.0275074612      0.0602273745     -0.0305163386
 H     -0.0573740972     -0.0026630385      0.0032734953
 H     -0.0200617936      0.0336580049      0.0038633505
 H      0.0147740117      0.0175138708     -0.0102069738
 H     -0.0119918608      0.0286778983      0.0363670362
 H      0.0093408008      0.0107258233     -0.0064917550
 H     -0.0065644576      0.0073966708      0.0022479042
 H      0.0090173574      0.0100493033      0.0338186618
 H     -0.0138680893      0.0032330117      0.0104868660
 H      0.0296027867     -0.0073166160      0.0100691330
 H      0.0051543361      0.0030822260      0.0129742418
 H     -0.0009220046      0.0013160151      0.0264071659
 H      0.0027670409     -0.0048722146     -0.0028494658
60
# ORCA AIMD Force Step 8, t=4.00 fs, E_Pot=-1207.39274806 Hartree, Unit is Hartree/Angstrom
 C     -0.0256966533      0.0555408664      0.0566376050
 C     -0.0063278971     -0.1152970323     -0.0988104871
 O     -0.0475427982      0.0448202324      0.0116905937
 C     -0.0657750370      0.0523311965     -0.0550286524
 C      0.0387926341     -0.0294732976      0.0252648742
 C     -0.0019267543     -0.0102519770      0.0070282155
 C     -0.1021181573      0.0504448728      0.0092642973
 O     -0.0588927447      0.0449543004     -0.0139438018
 B      0.0921176586     -0.0587989663      0.0136898331
 C     -0.0440720408      0.0740316250      0.0423965677
 C     -0.0224639401      0.0374238957      0.0590488752
 C     -0.0040368578     -0.0042120966     -0.0480329098
 H     -0.0381244700      0.0145622371     -0.0193735982
 C      0.0712891924     -0.0077478438      0.0373626742
 H     -0.0098607025     -0.0031411195     -0.0348161290
 C     -0.0167690605      0.0199751749      0.0292700200
 B     -0.0165998184     -0.0082403680     -0.0115913185
 O     -0.0153483600     -0.0023115912      0.0523555857
 C      0.0213888666     -0.1146646224     -0.0982865578
 C     -0.0152505716     -0.0123020856      0.0241259358
 C      0.0494140200      0.0023341109     -0.0080134208
 C      0.0504342277      0.0478590215     -0.0047434739
 C      0.0077659204     -0.0647663073     -0.0178529934
 C     -0.0323040493     -0.0116620286     -0.0656989647
 O      0.0029846842      0.0159004866      0.0394389059
 C     -0.0139843337     -0.0449209651     -0.0554710306
 C      0.0571863931      0.0528498856      0.0239381989
 H     -0.0142181753     -0.0091243572     -0.0173337604
 C      0.0236316292     -0.0107183507      0.0108893174
 C     -0.0297718929     -0.0722176354     -0.0251106030
 C      0.0167531088      0.0136424261      0.0052400000