60
# ORCA AIMD Position Step 0, t=0.00 fs, E_Pot=-1207.44432407 Hartree, Unit is Angstrom
 C      0.5759910026     -1.6362350073     -5.9354400266
 C      0.8416030038     -2.0875640093     -4.4998810202
 O      0.3862130017     -1.0508740047     -3.5896210161
 C      0.0160250001     -3.3396320150     -4.1814530187
 C      2.3800110107     -2.2340810100     -4.1204960185
 C      2.8980480130     -3.6695770164     -4.0835550183
 C      3.2969520148     -1.3588640061     -4.9828420223
 O      2.4311050109     -1.7218880077     -2.7635860124
 B      1.2797730057     -1.0005650045     -2.5323890113
 C      1.0100750045     -0.1705540008     -1.2506760056
 C      2.0514060092      0.1231170006     -0.4030340018
 C      2.1162390095      1.1835610053      0.5949450027
 H      3.0563080137      1.2159920054      1.1693550052
 C      0.9324660042      1.8237220082      1.2966860058
 H      1.2137910054      2.2324090100      2.2783430102
 C     -0.4207930019      1.2139230054      1.2877030058
 B     -1.1845530053      1.1814390053      2.6405050118
 O     -0.6763370030      1.7557920079      3.7908560170
 C     -1.5335060069      1.3707840061      4.8989210219
 C     -1.6863960076      2.5725830115      5.8291790261
 C     -0.8335340037      0.2226890010      5.6360840252
 C     -2.8705870129      0.9208030041      4.1646890187
 C     -3.8886010174      2.0568940092      4.0149100180
 C     -3.5443020159     -0.3096770014      4.7667390213
 O     -2.4094450108      0.5786180026      2.8309020127
 C     -0.9681500043      0.6600260030      0.1745500008
 C     -0.3209590014      0.5764870026     -1.1883420053
 H     -1.0286090046      0.0817840004     -1.8778700084
 C      0.1288990006      1.8843620084     -1.8038160081
 C      0.9364520042      2.7812400125     -1.1766150053
 C      1.5077470068      2.6370390118      0.1632960007
 H      2.1179990095      3.4948400157      0.4855250022
 H     -0.5156330023     -1.5554670070     -6.1070220274
 H      0.9850440044     -2.3646320106     -6.6646250298
 H      1.0236310046     -0.6465300029     -6.1383440275
 H     -1.0587410047     -3.1005640139     -4.3007830193
 H      0.1725340008     -3.6679750164     -3.1359440140
 H      0.2626580012     -4.1819630187     -4.8562090217
 H      2.8043500126     -4.1617800186     -5.0714860227
 H      2.3532650105     -4.2696090191     -3.3318450149
 H      3.9678700178     -3.6660550164     -3.7964700170
 H      3.3676040151     -1.7433990078     -6.0198040270
 H      4.3129940193     -1.3562850061     -4.5425170203
 H      2.9397190132     -0.3116300014     -5.0194990225
 H      3.0067270135     -0.3916010018     -0.6028400027
 H     -0.7082000032      2.8161270126      6.2889270282
 H     -2.4036750108      2.3562610106      6.6458440298
 H     -2.0348180091      3.4676550155      5.2824640237
 H      0.1708210008      0.5584590025      5.9603630267
 H     -0.7023770031     -0.6588770030      4.9794760223
 H     -1.4024170063     -0.0889500004      6.5337780293
 H     -4.3397250194      2.3292500104      4.9889880223
 H     -4.6987390210      1.7251030077      3.3369320149
 H     -3.4268500153      2.9620490133      3.5749900160
 H     -3.8362560172     -0.1273360006      5.8201420261
 H     -2.8807620129     -1.1927060053      4.7282270212
 H     -4.4599240200     -0.5498500025      4.1914870188
 H     -1.9702540088      0.2090690009      0.2773650012
 H     -0.0593330003      1.9956760089     -2.8835310129
 H      1.3191570059      3.6269690162     -1.7716400079
60
# ORCA AIMD Position Step 1, t=0.50 fs, E_Pot=-1207.44072743 Hartree, Unit is Angstrom
 C      0.5801113959     -1.6357353538     -5.9334293041
 C      0.8411200288     -2.0787879809     -4.4913832700
 O      0.3903828451     -1.0503317675     -3.5892514481
 C      0.0218950869     -3.3439001084     -4.1778230852
 C      2.3765690216     -2.2302153536     -4.1224970778
 C      2.8949419751     -3.6655372043     -4.0850873518
 C      3.2991544337     -1.3608426150     -4.9843041833
 O      2.4344775412     -1.7233933912     -2.7639503346
 B      1.2753196320     -0.9981834713     -2.5322402425
 C      1.0119243096     -0.1772747160     -1.2523188178
 C      2.0539811278      0.1224020446     -0.4066207260
 C      2.1176588640      1.1814051639      0.5961681646
 H      3.0743979300      1.2094577633      1.1723772073
 C      0.9279848171      1.8238933586      1.2948319483
 H      1.2150276128      2.2306685037      2.2905063919
 C     -0.4180175349      1.2121185474      1.2873891369
 B     -1.1831139089      1.1808743629      2.6411224764
 O     -0.6768932031      1.7589220374      3.7861195612
 C     -1.5340848577      1.3783562530      4.9037562623
 C     -1.6840483754      2.5724688984      5.8278920250
 C     -0.8380847157      0.2199478651      5.6343130720
 C     -2.8733668128      0.9206741300      4.1650758502
 C     -3.8871485658      2.0604096091      4.0142793661
 C     -3.5415456942     -0.3064635901      4.7699865507
 O     -2.4085675763      0.5771385474      2.8296241133
 C     -0.9668335339      0.6682767040      0.1761835798
 C     -0.3220158572      0.5755698370     -1.1886060911
 H     -1.0293819463      0.0801550333     -1.8709373525
 C      0.1251595380      1.8863989655     -1.8035251361
 C      0.9387789321      2.7871122928     -1.1740214937
 C      1.5047313924      2.6382806844      0.1642554663
 H      2.1208300913      3.5077466457      0.4769089018
 H     -0.5041125730     -1.5445666173     -6.1262184279
 H      0.9824782533     -2.3407440932     -6.6511451814
 H      1.0313963628     -0.6501808227     -6.1240779148
 H     -1.0673218768     -3.1047296819     -4.2859268612
 H      0.1631083920     -3.6731956911     -3.1572609791
 H      0.2537497918     -4.1890281382     -4.8628881618
 H      2.8229021303     -4.1662874905     -5.0722089275
 H      2.3635562935     -4.2680790798     -3.3238339704
 H      3.9482687405     -3.6697660562     -3.7843908476
 H      3.3641034326     -1.7510245177     -6.0194891169
 H      4.3011047498     -1.3589363865     -4.5402767149
 H      2.9167740199     -0.3007758295     -5.0165278767
 H      3.0127107550     -0.3843418212     -0.5999704975
 H     -0.7184266119      2.8198760061      6.2894878717
 H     -2.3958721066      2.3501815714      6.6416161650
 H     -2.0354715688      3.4501097212      5.2885610063
 H      0.1861115217      0.5470728753      5.9558091347
 H     -0.6975665807     -0.6709697712      4.9763168693
 H     -1.4124640205     -0.1032713226      6.5313391872
 H     -4.3364314082      2.3172290954      4.9829254976
 H     -4.7030038863      1.7201316320      3.3422762019
 H     -3.4209304171      2.9608591283      3.5704992577
 H     -3.8414015796     -0.1342391569      5.8156850734
 H     -2.8745486997     -1.1909844305      4.7143028556
 H     -4.4691199134     -0.5371025978      4.1915233984
 H     -1.9743112218      0.2188204123      0.2688402467
 H     -0.0563284754      1.9964288467     -2.8922683787
 H      1.3197035036      3.6359045213     -1.7674970684
60
# ORCA AIMD Position Step 2, t=1.00 fs, E_Pot=-1207.43213498 Hartree, Unit is Angstrom
 C      0.5841789960     -1.6351178476     -5.9313366479
 C      0.8406364636     -2.0700805652     -4.4829246313
 O      0.3945919061     -1.0498291086     -3.5888634982
 C      0.0276318974     -3.3481373113     -4.1743396234
 C      2.3731338446     -2.2263602205     -4.1244615073
 C      2.8918001860     -3.6615610669     -4.0866164532
 C      3.3012481664     -1.3626982898     -4.9857928418
 O      2.4377512528     -1.7248787997     -2.7643739840
 B      1.2709760699     -0.9958857135     -2.5321208932
 C      1.0138550631     -0.1839090176     -1.2538265085
 C      2.0564715824      0.1216788263     -0.4102952936
 C      2.1191466199      1.1792980451      0.5974218540
 H      3.0902765268      1.2033090810      1.1739222128
 C      0.9236293504      1.8241097963      1.2930540743
 H      1.2156402910      2.2281031518      2.3006493438
 C     -0.4153029699      1.2102666585      1.2869577224
 B     -1.1817234146      1.1802952369      2.6417709987
 O     -0.6775266742      1.7620090255      3.7814085502
 C     -1.5346504139      1.3858516425      4.9084970966
 C     -1.6817117656      2.5723218139      5.8266575189
 C     -0.8425379546      0.2171535119      5.6325606575
 C     -2.8760909920      0.9205837066      4.1654473132
 C     -3.8857145407      2.0638991014      4.0135826245
 C     -3.5388472307     -0.3033201028      4.7731611550
 O     -2.4076511462      0.5757073270      2.8284271243
 C     -0.9655259497      0.6765223716      0.1778994487
 C     -0.3230203231      0.5746722879     -1.1888814144
 H     -1.0295624959      0.0790567996     -1.8634698268
 C      0.1215335666      1.8885817165     -1.8032277761
 C      0.9409971033      2.7928510608     -1.1715516114
 C      1.5018023778      2.6395546796      0.1652625820
 H      2.1227511357      3.5186849985      0.4679871764
 H     -0.4916186615     -1.5338487122     -6.1449240495
 H      0.9802522831     -2.3174260337     -6.6379043665
 H      1.0388265425     -0.6546121484     -6.1096866124
 H     -1.0738322685     -3.1092009385     -4.2710754105
 H      0.1540753172     -3.6786145236     -3.1778630659
 H      0.2446858891     -4.1947451208     -4.8686505993
 H      2.8413636318     -4.1701233856     -5.0717807047
 H      2.3741406487     -4.2658312685     -3.3169779563
 H      3.9284601576     -3.6731879323     -3.7725846486
 H      3.3605429945     -1.7581076001     -6.0179710881
 H      4.2887942145     -1.3615429559     -4.5382343908
 H      2.8949098697     -0.2923084922     -5.0135349846
 H      3.0175977797     -0.3765979496     -0.5969360440
 H     -0.7290835018      2.8233770569      6.2897041797
 H     -2.3875296679      2.3442350683      6.6367298093
 H     -2.0361774235      3.4325827277      5.2946406847
 H      0.1992368121      0.5351876039      5.9507429974
 H     -0.6931617158     -0.6814485310      4.9740616484
 H     -1.4216153672     -0.1169902888      6.5276146057
 H     -4.3328245736      2.3052573141      4.9763828979
 H     -4.7061225126      1.7156476281      3.3484038993
 H     -3.4155712306      2.9586659429      3.5665262647
 H     -3.8461758193     -0.1411982608      5.8105575460
 H     -2.8693369884     -1.1880221413      4.7005801258
 H     -4.4767045938     -0.5240301390      4.1924866519
 H     -1.9768948595      0.2292664658      0.2601965165
 H     -0.0534349549      1.9974172531     -2.8990486357
 H      1.3197255951      3.6437569184     -1.7624896625
60
# ORCA AIMD Position Step 3, t=1.50 fs, E_Pot=-1207.42014894 Hartree, Unit is Angstrom
 C      0.5881454686     -1.6342759713     -5.9290367677
 C      0.8401430663     -2.0615138361     -4.4745645794
 O      0.3988121934     -1.0493407140     -3.5884517477
 C      0.0331447177     -3.3522809564     -4.1711685428
 C      2.3697274673     -2.2225292693     -4.1263749845
 C      2.8885676909     -3.6576673384     -4.0881487595
 C      3.3031059561     -1.3643552922     -4.9873245457
 O      2.4408989966     -1.7263243520     -2.7648534294
 B      1.2668267902     -0.9937140558     -2.5320266782
 C      1.0158428006     -0.1904200010     -1.2551755082
 C      2.0588704306      0.1209650437     -0.4140395164
 C      2.1207404789      1.1772362174      0.5987202241
 H      3.1031915267      1.1975937916      1.1736577060
 C      0.9194707587      1.8243927601      1.2914094936
 H      1.2154281206      2.2245189790      2.3081048299
 C     -0.4126633144      1.2083812439      1.2864473291
 B     -1.1803921660      1.1796932300      2.6424346716
 O     -0.6782382145      1.7650641252      3.7767476422
 C     -1.5351874643      1.3932013767      4.9130843026
 C     -1.6793914625      2.5720726029      5.8255073373
 C     -0.8468330739      0.2142803675      5.6308299721
 C     -2.8787300072      0.9205677164      4.1658010477
 C     -3.8842892439      2.0673129716      4.0127689425
 C     -3.5362378239     -0.3002748053      4.7761869551
 O     -2.4066974047      0.5743229425      2.8273237499
 C     -0.9642572056      0.6847304749      0.1796440734
 C     -0.3239326657      0.5738181125     -1.1891410460
 H     -1.0293949142      0.0783534442     -1.8557183996
 C      0.1180538172      1.8909403108     -1.8029379104
 C      0.9430564568      2.7984125468     -1.1692375583
 C      1.4989907959      2.6409010599      0.1663325624
 H      2.1234888758      3.5271956041      0.4588319402
 H     -0.4784717947     -1.5233209638     -6.1629727890
 H      0.9792713660     -2.2961365144     -6.6261958854
 H      1.0460739465     -0.6594180307     -6.0952935204
 H     -1.0776500860     -3.1140305382     -4.2563235491
 H      0.1459163936     -3.6849083333     -3.1957232987
 H      0.2355455503     -4.1988166130     -4.8733559049
 H      2.8595541316     -4.1732333264     -5.0701489716
 H      2.3847180058     -4.2628708932     -3.3114314728
 H      3.9094794615     -3.6760867428     -3.7608701464
 H      3.3569841359     -1.7645727424     -6.0153453591
 H      4.2768807351     -1.3640056461     -4.5360854866
 H      2.8747361489     -0.2871394837     -5.0106078705
 H      3.0215333460     -0.3685339946     -0.5938693097
 H     -0.7394456313      2.8267817137      6.2898300273
 H     -2.3789480787      2.3383551025      6.6314890785
 H     -2.0373905621      3.4162225288      5.3000478306
 H      0.2094108812      0.5226767920      5.9451093021
 H     -0.6893847602     -0.6898476810      4.9728471874
 H     -1.4296564791     -0.1299243925      6.5224384201
 H     -4.3291500151      2.2936883616      4.9700080542
 H     -4.7079767904      1.7117822519      3.3552691712
 H     -3.4108306237      2.9555895514      3.5630757997
 H     -3.8505509252     -0.1481071135      5.8053161975
 H     -2.8653352755     -1.1837062533      4.6871602291
 H     -4.4822386668     -0.5106721435      4.1945700838
 H     -1.9778930164      0.2404908362      0.2515581328
 H     -0.0506331055      1.9986220108     -2.9034783823
 H      1.3192366596      3.6505200642     -1.7566424778
60
# ORCA AIMD Position Step 4, t=2.00 fs, E_Pot=-1207.40718659 Hartree, Unit is Angstrom
 C      0.5919655727     -1.6331078954     -5.9263998077
 C      0.8396328175     -2.0531545387     -4.4663562106
 O      0.4030183100     -1.0488383735     -3.5880092313
 C      0.0383655391     -3.3562675112     -4.1684619175
 C      2.3663691863     -2.2187328756     -4.1282252827
 C      2.8851914093     -3.6538633244     -4.0896939922
 C      3.3046088912     -1.3657595043     -4.9889118123
 O      2.4438988394     -1.7277130125     -2.7653860567
 B      1.2629489643     -0.9917060032     -2.5319509690
 C      1.0178646937     -0.1967779660     -1.2563444031
 C      2.0611689502      0.1202806136     -0.4178367041
 C      2.1224623328      1.1752134988      0.6000668693
 H      3.1126216107      1.1923609007      1.1713838336
 C      0.9155698177      1.8247563341      1.2899371642
 H      1.2142514919      2.2198069110      2.3124169694
 C     -0.4101085861      1.2064749639      1.2858980006
 B     -1.1791289503      1.1790594421      2.6430972152
 O     -0.6790286518      1.7681016389      3.7721565319
 C     -1.5356814402      1.4003421522      4.9174632224
 C     -1.6770886626      2.5716545440      5.8244685034
 C     -0.8509263842      0.2113082274      5.6291169727
 C     -2.8812572807      0.9206617265      4.1661354911
 C     -3.8828578584      2.0706036803      4.0117937923
 C     -3.5337389482     -0.2973424868      4.7789966425
 O     -2.4057073674      0.5729825074      2.8263252172
 C     -0.9630480257      0.6928798126      0.1813626770
 C     -0.3247115323      0.5730332474     -1.1893554487
 H     -1.0291554357      0.0778834197     -1.8479555675
 C      0.1147484422      1.8935018462     -1.8026586392
 C      0.9449101641      2.8037557682     -1.1671010616
 C      1.4963156027      2.6423481348      0.1674758442
 H      2.1228754251      3.5329775998      0.4495588613
 H     -0.4650156840     -1.5129711332     -6.1802389573
 H      0.9804517886     -2.2782927205     -6.6173143673
 H      1.0533195362     -0.6641594212     -6.0810086657
 H     -1.0783583541     -3.1192313563     -4.2417718708
 H      0.1390626798     -3.6927760877     -3.2088742563
 H      0.2264249568     -4.2010450715     -4.8769399256
 H      2.8773168674     -4.1755968361     -5.0673281798
 H      2.3949589826     -4.2592519919     -3.3072756638
 H      3.8923181102     -3.6782398422     -3.7490360831
 H      3.3534899029     -1.7703886509     -6.0117806771
 H      4.2661788832     -1.3662362017     -4.5335054698
 H      2.8567519333     -0.2858924050     -5.0078358661
 H      3.0247270609     -0.3603343791     -0.5909087614
 H     -0.7487807464      2.8302627032      6.2901350737
 H     -2.3704500597      2.3324554639      6.6262313675
 H     -2.0395818180      3.4021481211      5.3041393468
 H      0.2160603960      0.5094764503      5.9389067140
 H     -0.6864305778     -0.6958456454      4.9727130818
 H     -1.4364526474     -0.1419408562      6.5157399331
 H     -4.3256549253      2.2828514827      4.9644549050
 H     -4.7085306468      1.7086265272      3.3627685176
 H     -3.4067221036      2.9518133720      3.5601166983
 H     -3.8545204325     -0.1548680131      5.8005353968
 H     -2.8626741989     -1.1780100612      4.6741282145
 H     -4.4854294685     -0.4970901985      4.1978812309
 H     -1.9773036757      0.2525383471      0.2430486367
 H     -0.0479286850      2.0000418197     -2.9053226405
 H      1.3182802206      3.6562707098     -1.7500291875
60
# ORCA AIMD Position Step 5, t=2.50 fs, E_Pot=-1207.39587546 Hartree, Unit is Angstrom
 C      0.5956061682     -1.6315320334     -5.9233114921
 C      0.8391011954     -2.0450665683     -4.4583483647
 O      0.4071863497     -1.0482911907     -3.5875273411
 C      0.0432497525     -3.3600400783     -4.1663315797
 C      2.3630765818     -2.2149796398     -4.1300016679
 C      2.8816282831     -3.6501462428     -4.0912617110
 C      3.3056529801     -1.3668751090     -4.9905603716
 O      2.4467327146     -1.7290299232     -2.7659701343
 B      1.2594140677     -0.9898951700     -2.5318847804
 C      1.0198991906     -0.2029584185     -1.2573134236
 C      2.0633567874      0.1196471323     -0.4216711330
 C      2.1243178189      1.1732221294      0.6014551903
 H      3.1182618375      1.1876615811      1.1670226418
 C      0.9119782994      1.8252074537      1.2886585790
 H      1.2120324102      2.2139381099      2.3133338033
 C     -0.4076455232      1.2045596388      1.2853505568
 B     -1.1779411586      1.1783847389      2.6437420545
 O     -0.6798989022      1.7711379887      3.7676513427
 C     -1.5361182308      1.4072140964      4.9215820286
 C     -1.6748026308      2.5710149589      5.8235608080
 C     -0.8547895792      0.2082241076      5.6274110916
 C     -2.8836480459      0.9209009207      4.1664499351
 C     -3.8814030407      2.0737266153      4.0106236912
 C     -3.5313644130     -0.2945248958      4.7815343176
 O     -2.4046815964      0.5716821272      2.8254418208
 C     -0.9619099686      0.7009583845      0.1829997279
 C     -0.3253150844      0.5723451326     -1.1894942176
 H     -1.0291309812      0.0774748310     -1.8404576686
 C      0.1116422819      1.8962902283     -1.8023817737
 C      0.9465138274      2.8088407172     -1.1651544813
 C      1.4937846595      2.6439117085      0.1686982156
 H      2.1208479930      3.5358847494      0.4403252557
 H     -0.4515993390     -1.5027736677     -6.1966310974
 H      0.9845919404     -2.2650609048     -6.6123348440
 H      1.0607596081     -0.6683917311     -6.0669284559
 H     -1.0757350045     -3.1247779213     -4.2275224593
 H      0.1338622271     -3.7028241255     -3.2157290521
 H      0.2174386286     -4.2013355039     -4.8794189517
 H      2.8945180335     -4.1772263009     -5.0633979213
 H      2.4045117701     -4.2550734197     -3.3045246942
 H      3.8778294334     -3.6794349559     -3.7368772584
 H      3.3501253590     -1.7755646771     -6.0075099498
 H      4.2574184755     -1.3681584294     -4.5301897508
 H      2.8413509709     -0.2889347927     -5.0053093872
 H      3.0274357664     -0.3521963400     -0.5881957077
 H     -0.7564058280      2.8339984425      6.2908756031
 H     -2.3623628581      2.3264386744      6.6213070462
 H     -2.0431793809      3.3913220226      5.3063667664
 H      0.2188151583      0.4955804861      5.9321848906
 H     -0.6844669475     -0.6992626688      4.9736018933
 H     -1.4419475736     -0.1529548921      6.5075438988
 H     -4.3225605523      2.2730402388      4.9603237545
 H     -4.7078291888      1.7062314727      3.3707426028
 H     -3.4032188165      2.9475768336      3.5575855350
 H     -3.8580836157     -0.1613962222      5.7967641266
 H     -2.8614060709     -1.1709953926      4.6615525564
 H     -4.4861294782     -0.4833671325      4.2024440798
 H     -1.9752342067      0.2654129967      0.2347894945
 H     -0.0453518397      2.0016936267     -2.9045030867
 H      1.3169262978      3.6611598067     -1.7427688039
60
# ORCA AIMD Position Step 6, t=3.00 fs, E_Pot=-1207.38808491 Hartree, Unit is Angstrom
 C      0.5990553423     -1.6295039969     -5.9196969041
 C      0.8385465312     -2.0373163712     -4.4505908701
 O      0.4112911179     -1.0476660597     -3.5869959875
 C      0.0477739301     -3.3635559847     -4.1648226237
 C      2.3598677671     -2.2112793284     -4.1316936273
 C      2.8778548428     -3.6465065205     -4.0928566427
 C      3.3061558837     -1.3676814065     -4.9922653833
 O      2.4493840453     -1.7302612290     -2.7666044586
 B      1.2562908195     -0.9883128807     -2.5318167860
 C      1.0219247991     -0.2089376761     -1.2580636271
 C      2.0654217964      0.1190874228     -0.4255259542
 C      2.1262954603      1.1712544376      0.6028679581
 H      3.1200118671      1.1835520694      1.1606128913
 C      0.9087416136      1.8257458491      1.2875790060
 H      1.2087562655      2.2069631064      2.3108022784
 C     -0.4052793454      1.2026474013      1.2848461809
 B     -1.1768356666      1.1776602820      2.6443520645
 O     -0.6808495679      1.7741895569      3.7632477850
 C     -1.5364838771      1.4137561091      4.9253885292
 C     -1.6725343129      2.5701278946      5.8227948066
 C     -0.8584066923      0.2050250765      5.6256966870
 C     -2.8858773225      0.9213200494      4.1667444209
 C     -3.8799082588      2.0766398263      4.0092415515
 C     -3.5291235399     -0.2918125321      4.7837576475
 O     -2.4036208597      0.5704178338      2.8246837200
 C     -0.9608462301      0.7089579370      0.1844987474
 C     -0.3257023405      0.5717819257     -1.1895279584
 H     -1.0295947341      0.0769631481     -1.8334879581
 C      0.1087592608      1.8993247413     -1.8020877695
 C      0.9478242847      2.8136251020     -1.1634028787
 C      1.4913964842      2.6455939129      0.1700003523
 H      2.1174499074      3.5359216140      0.4313323529
 H     -0.4385638845     -1.4927010270     -6.2120777874
 H      0.9922242417     -2.2571403897     -6.6118675807
 H      1.0685875876     -0.6716930673     -6.0531421167
 H     -1.0697441636     -3.1306056467     -4.2136807936
 H      0.1305615723     -3.7154310796     -3.2154106432
 H      0.2087239890     -4.1996970675     -4.8808917956
 H      2.9110384763     -4.1781640302     -5.0585014018
 H      2.4130066505     -4.2504749099     -3.3031352083
 H      3.8666398718     -3.6794676237     -3.7242414316
 H      3.3469592024     -1.7801439184     -6.0028207075
 H      4.2511607664     -1.3697079971     -4.5259014151
 H      2.8288339170     -0.2964033296     -5.0031211791
 H      3.0299413089     -0.3443245849     -0.5858720484
 H     -0.7617461562      2.8381525217      6.2922612448
 H     -2.3550011396      2.3202087036      6.6170581619
 H     -2.0484988340      3.3844197341      5.3063644510
 H      0.2174987930      0.4810428621      5.9250452266
 H     -0.6836358938     -0.7000572310      4.9753586949
 H     -1.4461592536     -0.1629233004      6.4979733796
 H     -4.3200341812      2.2645072031      4.9580988197
 H     -4.7059967184      1.7046101820      3.3789760556
 H     -3.4002607974      2.9431673618      3.5553924280
 H     -3.8612262967     -0.1676210185      5.7944815368
 H     -2.8615058973     -1.1628167727      4.6494897724
 H     -4.4843343887     -0.4696119192      4.2081995374
 H     -1.9718994434      0.2790720140      0.2269021218
 H     -0.0429572697      2.0036118347     -2.9010967574
 H      1.3152672279      3.6653990415     -1.7350229832
60
# ORCA AIMD Position Step 7, t=3.50 fs, E_Pot=-1207.38408649 Hartree, Unit is Angstrom
 C      0.6023281023     -1.6270283007     -5.9155403221
 C      0.8379704255     -2.0299792366     -4.4431410524
 O      0.4153025567     -1.0469285700     -3.5864040691
 C      0.0519319588     -3.3667914746     -4.1638968720
 C      2.3567641615     -2.2076465063     -4.1332894169
 C      2.8738763048     -3.6429321945     -4.0944736707
 C      3.3060641218     -1.3681715330     -4.9940075768
 O      2.4518352041     -1.7313928198     -2.7672876792
 B      1.2536478551     -0.9869895857     -2.5317334100
 C      1.0239183248     -0.2146875292     -1.2585764842
 C      2.0673501340      0.1186249130     -0.4293800851
 C      2.1283644226      1.1693048487      0.6042761200
 H      3.1179811690      1.1800963563      1.1523161455
 C      0.9059012457      1.8263634483      1.2866881110
 H      1.2044781838      2.1990174898      2.3049774759
 C     -0.4030159083      1.2007522941      1.2844260451
 B     -1.1758197604      1.1768783619      2.6449092551
 O     -0.6818800949      1.7772697701      3.7589651270
 C     -1.5367643766      1.4199005709      4.9288269057
 C     -1.6702902478      2.5690049210      5.8221713617
 C     -0.8617712379      0.2017218724      5.6239549672
 C     -2.8879177711      0.9219528062      4.1670195640
 C     -3.8783612966      2.0793034208      4.0076519987
 C     -3.5270243823     -0.2891871797      4.7856400866
 O     -2.4025271436      0.5691867288      2.8240615861
 C     -0.9598528230      0.7168666352      0.1858021118
 C     -0.3258351978      0.5713713358     -1.1894305340
 H     -1.0307781940      0.0762108834     -1.8272788855
 C      0.1061249008      1.9026172522     -1.8017459410
 C      0.9487990095      2.8180611676     -1.1618463145
 C      1.4891422021      2.6473813300      0.1713768238
 H      2.1128364780      3.5332477541      0.4228295488
 H     -0.4262301952     -1.4827378228     -6.2265098270
 H      1.0034939414     -2.2546155021     -6.6158748856
 H      1.0769705617     -0.6736964053     -6.0397417612
 H     -1.0605403396     -3.1366074694     -4.2003601671
 H      0.1293048935     -3.7306376602     -3.2079692623
 H      0.2004468358     -4.1962474700     -4.8815412267
 H      2.9267622468     -4.1784789780     -5.0528449545
 H      2.4200624468     -4.2456329356     -3.3030157320
 H      3.8590770443     -3.6781415553     -3.7110783748
 H      3.3440656358     -1.7841947008     -5.9980439215
 H      4.2477221068     -1.3708318954     -4.5205201676
 H      2.8194136738     -0.3082035424     -5.0013677770
 H      3.0325242498     -0.3369259449     -0.5840774604
 H     -0.7643954143      2.8428494580      6.2944201722
 H     -2.3486477548      2.3136873977      6.6137938805
 H     -2.0556752252      3.3817225549      5.3040246393
 H      0.2121347790      0.4659869046      5.9176461709
 H     -0.6840525835     -0.6983286915      4.9777276845
 H     -1.4491770472     -0.1718375191      6.4872566094
 H     -4.3181640296      2.2574617822      4.9580882850
 H     -4.7032354031      1.7037398399      3.3871966755
 H     -3.3977638655      2.9389103312      3.5534285216
 H     -3.8639016942     -0.1734843392      5.7940516563
 H     -2.8628710708     -1.1537279352      4.6379910901
 H     -4.4801883861     -0.4559683022      4.2150013854
 H     -1.9676201589      0.2934163101      0.2195109813
 H     -0.0408246489      2.0058461865     -2.8953407408
 H      1.3134129497      3.6692436680     -1.7269935162
60
# ORCA AIMD Position Step 8, t=4.00 fs, E_Pot=-1207.38246010 Hartree, Unit is Angstrom
 C      0.6054665562     -1.6241576650     -5.9108912015
 C      0.8373777323     -2.0231400701     -4.4360652035
 O      0.4191846393     -1.0460443503     -3.5857401715
 C      0.0557330705     -3.3697424157     -4.1634346537
 C      2.3537913392     -2.2041020649     -4.1347756610
 C      2.8697306766     -3.6394117861     -4.0960946931
 C      3.3053601813     -1.3683541530     -4.9957517640
 O      2.4540669155     -1.7324100670     -2.7680178087
 B      1.2515531141     -0.9859546104     -2.5316190309
 C      1.0258542451     -0.2201735861     -1.2588345560
 C      2.0691280643      0.1182823586     -0.4332070302
 C      2.1304725850      1.1673706897      0.6056380887
 H      3.1125135847      1.1773651668      1.1424288350
 C      0.9034941684      1.8270437311      1.2859592809
 H      1.1993317820      2.1903283571      2.2962444076
 C     -0.4008625319      1.1988906183      1.2841301540
 B     -1.1749012325      1.1760330745      2.6453950595
 O     -0.6829881205      1.7803874665      3.7548276044
 C     -1.5369459718      1.4255727441      4.9318378495
 C     -1.6680842066      2.5676998037      5.8216834356
 C     -0.8648863432      0.1983408831      5.6221653927
 C     -2.8897394061      0.9228305207      4.1672765463
 C     -3.8767565008      2.0816809493      4.0058844487
 C     -3.5250749304     -0.2866235841      4.7871743140
 O     -2.4014042408      0.5679874382      2.8235864449
 C     -0.9589196226      0.7246656537      0.1868524508
 C     -0.3256814722      0.5711386339     -1.1891816541
 H     -1.0328413948      0.0751274779     -1.8220097837
 C      0.1037665317      1.9061699711     -1.8013152307
 C      0.9493974822      2.8220964651     -1.1604811714
 C      1.4870060410      2.6492438055      0.1728155800
 H      2.1072823667      3.5281890312      0.4151120035