60
# ORCA AIMD Force Step 0, t=0.00 fs, E_Pot=-1207.44432407 Hartree, Unit is Hartree/Angstrom
 C      0.0000000000      0.0000000000      0.0000000000
 C      0.0000000000      0.0000000000      0.0000000000
 O      0.0000000000      0.0000000000      0.0000000000
 C      0.0000000000      0.0000000000      0.0000000000
 C      0.0000000000      0.0000000000      0.0000000000
 C      0.0000000000      0.0000000000      0.0000000000
 C      0.0000000000      0.0000000000      0.0000000000
 O      0.0000000000      0.0000000000      0.0000000000
 B      0.0000000000      0.0000000000      0.0000000000
 C      0.0000000000      0.0000000000      0.0000000000
 C      0.0000000000      0.0000000000      0.0000000000
 C      0.0000000000      0.0000000000      0.0000000000
 H      0.0000000000      0.0000000000      0.0000000000
 C      0.0000000000      0.0000000000      0.0000000000
 H      0.0000000000      0.0000000000      0.0000000000
 C      0.0000000000      0.0000000000      0.0000000000
 B      0.0000000000      0.0000000000      0.0000000000
 O      0.0000000000      0.0000000000      0.0000000000
 C      0.0000000000      0.0000000000      0.0000000000
 C      0.0000000000      0.0000000000      0.0000000000
 C      0.0000000000      0.0000000000      0.0000000000
 C      0.0000000000      0.0000000000      0.0000000000
 C      0.0000000000      0.0000000000      0.0000000000
 C      0.0000000000      0.0000000000      0.0000000000
 O      0.0000000000      0.0000000000      0.0000000000
 C      0.0000000000      0.0000000000      0.0000000000
 C      0.0000000000      0.0000000000      0.0000000000
 H      0.0000000000      0.0000000000      0.0000000000
 C      0.0000000000      0.0000000000      0.0000000000
 C      0.0000000000      0.0000000000      0.0000000000
 C      0.0000000000      0.0000000000      0.0000000000
 H      0.0000000000      0.0000000000      0.0000000000
 H      0.0000000000      0.0000000000      0.0000000000
 H      0.0000000000      0.0000000000      0.0000000000
 H      0.0000000000      0.0000000000      0.0000000000
 H      0.0000000000      0.0000000000      0.0000000000
 H      0.0000000000      0.0000000000      0.0000000000
 H      0.0000000000      0.0000000000      0.0000000000
 H      0.0000000000      0.0000000000      0.0000000000
 H      0.0000000000      0.0000000000      0.0000000000
 H      0.0000000000      0.0000000000      0.0000000000
 H      0.0000000000      0.0000000000      0.0000000000
 H      0.0000000000      0.0000000000      0.0000000000
 H      0.0000000000      0.0000000000      0.0000000000
 H      0.0000000000      0.0000000000      0.0000000000
 H      0.0000000000      0.0000000000      0.0000000000
 H      0.0000000000      0.0000000000      0.0000000000
 H      0.0000000000      0.0000000000      0.0000000000
 H      0.0000000000      0.0000000000      0.0000000000
 H      0.0000000000      0.0000000000      0.0000000000
 H      0.0000000000      0.0000000000      0.0000000000
 H      0.0000000000      0.0000000000      0.0000000000
 H      0.0000000000      0.0000000000      0.0000000000
 H      0.0000000000      0.0000000000      0.0000000000
 H      0.0000000000      0.0000000000      0.0000000000
 H      0.0000000000      0.0000000000      0.0000000000
 H      0.0000000000      0.0000000000      0.0000000000
 H      0.0000000000      0.0000000000      0.0000000000
 H      0.0000000000      0.0000000000      0.0000000000
 H      0.0000000000      0.0000000000      0.0000000000
60
# ORCA AIMD Force Step 1, t=0.50 fs, E_Pot=-1207.44072743 Hartree, Unit is Hartree/Angstrom
 C     -0.0100997191      0.0215059356      0.0147729787
 C     -0.0000561829     -0.0134929925     -0.0080662844
 O      0.0089606718     -0.0097217680      0.0044264299
 C     -0.0250106456      0.0061087731     -0.0271843010
 C      0.0016153458     -0.0023396805      0.0069155510
 C     -0.0062070613     -0.0120816997      0.0007556236
 C     -0.0201188453      0.0227013215     -0.0046905156
 O     -0.0245615720      0.0050824857     -0.0144045661
 B      0.0185097047     -0.0140229906     -0.0048581172
 C      0.0147015102      0.0165290114      0.0248948021
 C     -0.0157642919     -0.0014348038     -0.0156850413
 C      0.0122693304      0.0091443289      0.0054533840
 H     -0.0341122518      0.0059781462     -0.0227059566
 C      0.0234794388      0.0082297210      0.0141355516
 H     -0.0095900437     -0.0126478282     -0.0311282612
 C     -0.0114388618     -0.0084832908     -0.0214696869
 B     -0.0081409558     -0.0023301512      0.0050538727
 O     -0.0187496337     -0.0109353414      0.0068769637
 C      0.0024941623     -0.0148721371     -0.0177888632
 C     -0.0022681988     -0.0060194113      0.0097412862
 C      0.0183194077     -0.0094413970      0.0035813390
 C      0.0104731852      0.0070478622     -0.0028529358
 C     -0.0035266428     -0.0051530671     -0.0120225756
 C     -0.0108799588     -0.0131362685     -0.0136889345
 O      0.0093769287      0.0119650028      0.0198984968
 C     -0.0017668129     -0.0018056990      0.0148786071
 C      0.0096973626      0.0036869435     -0.0020274381
 H      0.0091016935      0.0081627815      0.0081492212
 C      0.0211627234      0.0264525082      0.0011556916
 C     -0.0201450927     -0.0250540304     -0.0228944036
 C      0.0161656449      0.0057798087      0.0086140166
 H     -0.0139968885     -0.0303342729     -0.0046145756
 H      0.0148417530     -0.0028997186      0.0077075021
 H      0.0052396036     -0.0089637919     -0.0037911088
 H     -0.0052157436     -0.0119499065      0.0017935751
 H      0.0318644192     -0.0046540753     -0.0002059885
 H      0.0061112409     -0.0029952406      0.0111670881
 H     -0.0023101092      0.0207609505      0.0141338546
 H     -0.0015581784      0.0103509972      0.0176792670
 H      0.0044067797      0.0110074049     -0.0178047857
 H     -0.0030062425      0.0044728058     -0.0042995182
 H     -0.0008874271      0.0083962912      0.0184681242
 H     -0.0063604963      0.0007118303     -0.0030596840
 H      0.0168002391     -0.0367417283      0.0003071197
 H     -0.0168912756      0.0073759127      0.0025065510
 H     -0.0065138694     -0.0038403019     -0.0052945514
 H      0.0082130051      0.0020956311     -0.0100714690
 H     -0.0007969794      0.0004388888     -0.0003205442
 H     -0.0333794712     -0.0075606576     -0.0078232895
 H     -0.0062696467      0.0248880160      0.0139061105
 H      0.0138412266      0.0093766163     -0.0197174464
 H      0.0047791374      0.0008625292     -0.0073158117
 H      0.0176360959      0.0075271563      0.0119807932
 H     -0.0086570384     -0.0153925232      0.0079894466
 H      0.0057470709     -0.0007968026     -0.0102549258
 H     -0.0154330833      0.0190326505      0.0032178863
 H      0.0248190236      0.0048756760      0.0142295638
 H      0.0226596768      0.0105767655     -0.0017498514
 H     -0.0017312443      0.0036098062      0.0301252812
 H     -0.0080558988     -0.0167089115      0.0132344848
60
# ORCA AIMD Force Step 2, t=1.00 fs, E_Pot=-1207.43213498 Hartree, Unit is Hartree/Angstrom
 C     -0.0201298062      0.0407623361      0.0370316930
 C     -0.0016016400     -0.0292370672     -0.0214411650
 O      0.0004660471     -0.0037438189      0.0055859357
 C     -0.0432625990      0.0188147248     -0.0585081129
 C      0.0066534179     -0.0059791793      0.0101078689
 C     -0.0153093713     -0.0166712919      0.0000325540
 C     -0.0439741714      0.0370652855     -0.0072661516
 O     -0.0324339076      0.0105042926     -0.0133569025
 B      0.0335423859     -0.0215810907     -0.0041782921
 C      0.0096351736      0.0252239537      0.0296164628
 C     -0.0177516573      0.0020171981     -0.0112460943
 C      0.0187926822      0.0091307848      0.0076600875
 H     -0.0460007573      0.0068569667     -0.0278105252
 C      0.0377476553      0.0120726184      0.0250833546
 H     -0.0126740484     -0.0155417458     -0.0415702190
 C     -0.0147903059     -0.0053791691     -0.0142618898
 B     -0.0102526240     -0.0035533502      0.0022563719
 O     -0.0186669315     -0.0094270530      0.0147367131
 C      0.0054392174     -0.0296551406     -0.0299985556
 C     -0.0039255750     -0.0186079786      0.0159127002
 C      0.0307032028     -0.0132719817      0.0046804965
 C      0.0166685771      0.0136420283     -0.0033907727
 C     -0.0021753529     -0.0152339479     -0.0210934850
 C     -0.0173697501     -0.0192191326     -0.0284833869
 O      0.0085908934      0.0121745247      0.0234379346
 C     -0.0076282855     -0.0102008699      0.0045622860
 C      0.0172452132      0.0082911319      0.0029795951
 H      0.0053464962      0.0060947428      0.0041016388
 C      0.0281938954      0.0312592715     -0.0014901242
 C     -0.0299269291     -0.0347257389     -0.0294824869
 C      0.0226497523      0.0127158951      0.0110836099
 H     -0.0182171997     -0.0376131083     -0.0032792859
 H      0.0095923678     -0.0032807749      0.0107114780
 H      0.0191747794     -0.0319093872     -0.0239555228
 H     -0.0030559679     -0.0055953393     -0.0004609697
 H      0.0415252965     -0.0053452656     -0.0020317509
 H      0.0137161356     -0.0132383258      0.0427595101
 H     -0.0008649196      0.0254360070      0.0164120732
 H     -0.0047837520      0.0112663932      0.0184474276
 H     -0.0004665734      0.0108545107     -0.0203210088
 H      0.0133721404      0.0081400124     -0.0018073255
 H      0.0001450650      0.0097196489      0.0169407059
 H      0.0065086811      0.0022955826      0.0015656329
 H      0.0266733900     -0.0508840475     -0.0011106163
 H     -0.0147613221      0.0046472914      0.0003922054
 H      0.0048833328     -0.0015975127     -0.0013950119
 H      0.0033854583      0.0012225045     -0.0052703110
 H     -0.0077578281      0.0184935855     -0.0105230492
 H     -0.0457174697     -0.0091924805     -0.0085344571
 H     -0.0097816842      0.0322570475      0.0160418959
 H      0.0173416908      0.0125054677     -0.0221413374
 H      0.0009164790      0.0065857396      0.0027954402
 H      0.0195010684      0.0096419879      0.0111064954
 H     -0.0096709540     -0.0134740316      0.0081504661
 H      0.0062847832      0.0010070403     -0.0015720035
 H     -0.0187383704      0.0206637978      0.0051112204
 H      0.0317139263      0.0039364972      0.0171509510
 H      0.0244091120      0.0115849311      0.0003753738
 H     -0.0015044475      0.0032853035      0.0362871665
 H     -0.0078399524     -0.0169757201      0.0127123421
60
# ORCA AIMD Force Step 3, t=1.50 fs, E_Pot=-1207.42014894 Hartree, Unit is Hartree/Angstrom
 C     -0.0301690748      0.0588173847      0.0595359102
 C     -0.0026473127     -0.0453162976     -0.0349593781
 O     -0.0083336710      0.0028255808      0.0070044599
 C     -0.0580991699      0.0322804460     -0.0875458618
 C      0.0117419775     -0.0096395925      0.0131973583
 C     -0.0234383717     -0.0197633401     -0.0010274849
 C     -0.0663958228      0.0475888713     -0.0088114807
 O     -0.0396105201      0.0155085019     -0.0123768982
 B      0.0478471080     -0.0285798997     -0.0031142428
 C      0.0045069833      0.0335954405      0.0340519831
 C     -0.0204012380      0.0059790759     -0.0064135077
 C      0.0219802749      0.0089322780      0.0076839555
 H     -0.0543333302      0.0078076647     -0.0307653466
 C      0.0506512408      0.0144697709      0.0328752626
 H     -0.0147605784     -0.0170184720     -0.0487019147
 C     -0.0177990064     -0.0021697479     -0.0066640124
 B     -0.0122196268     -0.0047505644     -0.0007048807
 O     -0.0183612068     -0.0078146518      0.0223707264
 C      0.0083304217     -0.0445368993     -0.0420121701
 C     -0.0052127511     -0.0306073489      0.0213271402
 C      0.0405757746     -0.0155740384      0.0047334579
 C      0.0226936018      0.0200950062     -0.0038292675
 C     -0.0001277426     -0.0254520418     -0.0287693457
 C     -0.0224468102     -0.0232726871     -0.0420833382
 O      0.0077213740      0.0122904683      0.0267720842
 C     -0.0119768758     -0.0178647209     -0.0062671955
 C      0.0251599528      0.0133956419      0.0084825086
 H      0.0010892721      0.0036260879     -0.0003908868
 C      0.0348585124      0.0349971610     -0.0021860953
 C     -0.0393323283     -0.0446808926     -0.0344258333
 C      0.0273430600      0.0172116613      0.0124512055
 H     -0.0207548579     -0.0424248994     -0.0011373672
 H      0.0037784784     -0.0034940069      0.0133064503
 H      0.0331845540     -0.0543439916     -0.0441650736
 H     -0.0005566357      0.0013387332     -0.0027085131
 H      0.0479186850     -0.0053348698     -0.0041433549
 H      0.0205919217     -0.0236544878      0.0734520750
 H      0.0009694744      0.0285334389      0.0175220779
 H     -0.0078809417      0.0116626883      0.0180980045
 H     -0.0059253621      0.0098729846     -0.0217106632
 H      0.0292584270      0.0116362487      0.0009769445
 H      0.0012497888      0.0104183972      0.0141937064
 H      0.0194321527      0.0037361386      0.0064480911
 H      0.0350165527     -0.0604634191     -0.0025899610
 H     -0.0116527683      0.0014899756     -0.0018506106
 H      0.0164905742      0.0009210244      0.0027362451
 H     -0.0019065348      0.0001276589      0.0001222654
 H     -0.0148968020      0.0362134397     -0.0205507656
 H     -0.0547406109     -0.0096510893     -0.0083046780
 H     -0.0128809632      0.0374004350      0.0166402888
 H      0.0196600138      0.0150025721     -0.0229448357
 H     -0.0030176945      0.0120599722      0.0130540050
 H      0.0200585140      0.0111543259      0.0092134340
 H     -0.0100298563     -0.0104966732      0.0077797555
 H      0.0065332533      0.0027708634      0.0074383167
 H     -0.0208313263      0.0208321307      0.0069218196
 H      0.0363040930      0.0024563118      0.0186572830
 H      0.0243942174      0.0117919526      0.0026049703
 H     -0.0016971154      0.0032067993      0.0399344190
 H     -0.0071267467     -0.0160055912      0.0113105167
60
# ORCA AIMD Force Step 4, t=2.00 fs, E_Pot=-1207.40718659 Hartree, Unit is Hartree/Angstrom
 C     -0.0382559722      0.0726318056      0.0784436291
 C     -0.0031559065     -0.0615715403     -0.0484476436
 O     -0.0173663681      0.0099168847      0.0087047273
 C     -0.0689202466      0.0447815996     -0.1089606936
 C      0.0168389066     -0.0133696369      0.0161540623
 C     -0.0291607793     -0.0213592540     -0.0018583480
 C     -0.0858102925      0.0546386271     -0.0088705019
 O     -0.0460866427      0.0201010444     -0.0114627230
 B      0.0613135326     -0.0349717706     -0.0016605351
 C     -0.0006338420      0.0415712051      0.0381245688
 C     -0.0235056081      0.0102783586     -0.0012831100
 C      0.0218603720      0.0086461171      0.0056438663
 H     -0.0591178076      0.0087982662     -0.0316514879
 C      0.0620519526      0.0154294247      0.0374471486
 H     -0.0158024576     -0.0171203938     -0.0524600043
 C     -0.0204108750      0.0011148509      0.0011398366
 B     -0.0140206801     -0.0058848503     -0.0037686367
 O     -0.0178508605     -0.0061480005      0.0297254748
 C      0.0111389705     -0.0593502287     -0.0537575476
 C     -0.0063945157     -0.0397704176      0.0254079020
 C      0.0478758630     -0.0161013971      0.0037806782
 C      0.0285443444      0.0263256843     -0.0041300150
 C      0.0021958437     -0.0353496820     -0.0341190933
 C     -0.0262854515     -0.0251616631     -0.0536513952
 O      0.0067637838      0.0123129679      0.0298812233
 C     -0.0147161030     -0.0247118728     -0.0173556028
 C      0.0330827986      0.0187719661      0.0140961882
 H     -0.0033181927      0.0009969200     -0.0049969067
 C      0.0411015162      0.0376328609     -0.0008433379
 C     -0.0482615032     -0.0548198568     -0.0377122963
 C      0.0301698337      0.0191358709      0.0127578954
 H     -0.0215539594     -0.0446777556      0.0017319552
 H     -0.0022453345     -0.0035897705      0.0154699387
 H      0.0451291014     -0.0727167742     -0.0607663497
 H      0.0020933493      0.0083638542     -0.0048681886
 H      0.0510473736     -0.0046558962     -0.0063938966
 H      0.0261224899     -0.0323929395      0.0979075115
 H      0.0031633629      0.0299156149      0.0173382869
 H     -0.0107509121      0.0115156668      0.0166274832
 H     -0.0117726207      0.0081205822     -0.0219943479
 H      0.0429697023      0.0149155201      0.0035278974
 H      0.0024088638      0.0104953498      0.0103661561
 H      0.0309987725      0.0049876239      0.0109395897
 H      0.0417020023     -0.0657644033     -0.0040928566
 H     -0.0078073649     -0.0019394501     -0.0041459126
 H      0.0272927828      0.0034732167      0.0066241394
 H     -0.0073178286     -0.0010742199      0.0057392603
 H     -0.0212446143      0.0513991873     -0.0290114306
 H     -0.0603840261     -0.0090344543     -0.0071877414
 H     -0.0155111234      0.0402083906      0.0156630964
 H      0.0207309240      0.0167952909     -0.0220918998
 H     -0.0065546696      0.0170067643      0.0224268199
 H      0.0192689661      0.0120193156      0.0063493480
 H     -0.0097576277     -0.0065823518      0.0069058440
 H      0.0066981593      0.0043818169      0.0160236466
 H     -0.0216306148      0.0194747293      0.0085660095
 H      0.0384879306      0.0005062429      0.0187434887
 H      0.0225686916      0.0111864101      0.0048647343
 H     -0.0022804398      0.0033759635      0.0409706633
 H     -0.0059636460     -0.0138780749      0.0090935176
60
# ORCA AIMD Force Step 5, t=2.50 fs, E_Pot=-1207.39587546 Hartree, Unit is Hartree/Angstrom
 C     -0.0421829973      0.0791063356      0.0895380419
 C     -0.0031202329     -0.0777926147     -0.0617218074
 O     -0.0265430715      0.0174238016      0.0106945628
 C     -0.0753776195      0.0543216661     -0.1173792151
 C      0.0218937833     -0.0172065986      0.0189492479
 C     -0.0310814007     -0.0215803052     -0.0017880168
 C     -0.1005926043      0.0585396176     -0.0069458614
 O     -0.0518683180      0.0242914668     -0.0106096654
 B      0.0738427261     -0.0407213046      0.0001755133
 C     -0.0057238390      0.0490879208      0.0417763005
 C     -0.0267681703      0.0147036345      0.0040282250
 C      0.0184848673      0.0083281588      0.0016467082
 H     -0.0603679159      0.0098037668     -0.0305476206
 C      0.0718216061      0.0149719815      0.0387970119
 H     -0.0157679744     -0.0159002334     -0.0528199143
 C     -0.0226025708      0.0044276892      0.0089424494
 B     -0.0156370524     -0.0069232236     -0.0068758657
 O     -0.0171532581     -0.0044742640      0.0367481289
 C      0.0138284831     -0.0739111669     -0.0651467830
 C     -0.0078376253     -0.0437455093      0.0276176237
 C      0.0525794490     -0.0146867495      0.0018919778
 C      0.0342132269      0.0322618222     -0.0042666494
 C      0.0043363779     -0.0444688871     -0.0362252070
 C     -0.0291165588     -0.0248362602     -0.0623266548
 O      0.0057179661      0.0122436371      0.0327470964
 C     -0.0158215637     -0.0306854924     -0.0284231782
 C      0.0405798564      0.0241196816      0.0193931810
 H     -0.0074602268     -0.0015052843     -0.0093367345
 C      0.0468763690      0.0391630812      0.0025601173
 C     -0.0565945701     -0.0649601157     -0.0394110449
 C      0.0310893397      0.0184326286      0.0120485613
 H     -0.0205897076     -0.0443284904      0.0052401541
 H     -0.0080896546     -0.0036336882      0.0172158800
 H      0.0526321154     -0.0833574499     -0.0697563754
 H      0.0046640162      0.0149350729     -0.0068731056
 H      0.0509852155     -0.0033544685     -0.0086409099
 H      0.0298953086     -0.0373787105      0.1107129569
 H      0.0056714956      0.0295075968      0.0157867028
 H     -0.0133099128      0.0108404509      0.0140913634
 H     -0.0177748681      0.0057056475     -0.0212590613
 H      0.0528395040      0.0179557429      0.0052254076
 H      0.0035997543      0.0099910739      0.0056683105
 H      0.0397060398      0.0060170042      0.0142925233
 H      0.0466528430     -0.0670824516     -0.0055941492
 H     -0.0035615986     -0.0054452663     -0.0064065331
 H      0.0361851906      0.0057562567      0.0097269578
 H     -0.0124497132     -0.0022366172      0.0111496402
 H     -0.0256879654      0.0617596829     -0.0344306376
 H     -0.0626423923     -0.0074458713     -0.0052428262
 H     -0.0176297436      0.0406300007      0.0131057131
 H      0.0205289824      0.0178348457     -0.0196033401
 H     -0.0091988833      0.0211831666      0.0298121953
 H      0.0171544241      0.0122228978      0.0026104517
 H     -0.0089209459     -0.0019234881      0.0055916675
 H      0.0070256205      0.0057396264      0.0233744830
 H     -0.0211067124      0.0165881023      0.0099629552
 H      0.0382246530     -0.0018335425      0.0174410764
 H      0.0189735030      0.0097983580      0.0070767939
 H     -0.0032202583      0.0037887815      0.0393673734
 H     -0.0044309818     -0.0107530833      0.0061839636
60
# ORCA AIMD Force Step 6, t=3.00 fs, E_Pot=-1207.38808491 Hartree, Unit is Hartree/Angstrom
 C     -0.0403670221      0.0765001313      0.0898323297
 C     -0.0025634929     -0.0937330078     -0.0745928126
 O     -0.0357521120      0.0252040572      0.0129628588
 C     -0.0774443283      0.0594338377     -0.1096488523
 C      0.0268446404     -0.0211700168      0.0215525395
 C     -0.0282068366     -0.0206437690     -0.0001800956
 C     -0.1093121983      0.0594153786     -0.0026576578
 O     -0.0569663338      0.0280909711     -0.0098074869
 B      0.0853410682     -0.0457997182      0.0023693815
 C     -0.0107049903      0.0560862686      0.0449511502
 C     -0.0298126043      0.0190160758      0.0093985324
 C      0.0118435907      0.0080242887     -0.0042357943
 H     -0.0580325482      0.0108040716     -0.0274942146
 C      0.0798315104      0.0131030738      0.0368962064
 H     -0.0146242789     -0.0133996621     -0.0497315789
 C     -0.0243689137      0.0077140721      0.0165270790
 B     -0.0170505444     -0.0078330636     -0.0099624572
 O     -0.0162918636     -0.0028418447      0.0433855336
 C      0.0163581784     -0.0880068439     -0.0760769589
 C     -0.0098654362     -0.0407513555      0.0277575735
 C      0.0546146805     -0.0112418200     -0.0008414342
 C      0.0396891479      0.0378265650     -0.0042246774
 C      0.0058898957     -0.0523849647     -0.0343801914
 C     -0.0311526222     -0.0223422659     -0.0673179017
 O      0.0045869547      0.0120875967      0.0353529454
 C     -0.0153442040     -0.0357595622     -0.0391735509
 C      0.0471779714      0.0290986256      0.0239252884
 H     -0.0108863163     -0.0035670442     -0.0130114469
 C      0.0521386408      0.0396009450      0.0079865736
 C     -0.0641842025     -0.0748290461     -0.0396690570
 C      0.0300849612      0.0150796613      0.0103807174
 H     -0.0178554224     -0.0413625895      0.0092925155
 H     -0.0133378447     -0.0037030656      0.0185980464
 H      0.0539517704     -0.0839153709     -0.0683588966
 H      0.0068867360      0.0204689025     -0.0086718358
 H      0.0478082194     -0.0014795361     -0.0107434284
 H      0.0318494934     -0.0371150993      0.1086046565
 H      0.0084336804      0.0273005238      0.0128594294
 H     -0.0154893187      0.0096905427      0.0106050317
 H     -0.0236698113      0.0027859644     -0.0196559370
 H      0.0575888793      0.0207356398      0.0054925337
 H      0.0047978569      0.0089867009      0.0003889031
 H      0.0442710883      0.0068068929      0.0158078568
 H      0.0497723005     -0.0645768140     -0.0070752156
 H      0.0006749726     -0.0088070717     -0.0085406830
 H      0.0421334155      0.0074432578      0.0115176043
 H     -0.0168694642     -0.0031869223      0.0158789977
 H     -0.0272557715      0.0655471172     -0.0356606639
 H     -0.0614856773     -0.0049728676     -0.0025159387
 H     -0.0192035025      0.0386531573      0.0089849477
 H      0.0190643402      0.0180952931     -0.0155552274
 H     -0.0105213957      0.0244179052      0.0342323377
 H      0.0138006270      0.0117838759     -0.0018579698
 H     -0.0076315743      0.0032158578      0.0039394633
 H      0.0077633877      0.0067713937      0.0287259778
 H     -0.0192841378      0.0122352723      0.0110412699
 H      0.0355034236     -0.0044794646      0.0148019353
 H      0.0137365020      0.0076971799      0.0091629011
 H     -0.0044797529      0.0044358744      0.0351594422
 H     -0.0026431855     -0.0068760195      0.0027635959
60
# ORCA AIMD Force Step 7, t=3.50 fs, E_Pot=-1207.38408649 Hartree, Unit is Hartree/Angstrom
 C     -0.0326736243      0.0655178063      0.0790084364
 C     -0.0015592294     -0.1090269101     -0.0867775318
 O     -0.0448093728      0.0330369369      0.0154321594
 C     -0.0753640863      0.0598825932     -0.0865748225
 C      0.0316061928     -0.0252372228      0.0239381291
 C     -0.0203154575     -0.0188266148      0.0033585256
 C     -0.1110175316      0.0571201909      0.0040382717
 O     -0.0613676861      0.0314859599     -0.0090562647
 B      0.0956733435     -0.0501645868      0.0048811943
 C     -0.0155038504      0.0624623072      0.0475967403
 C     -0.0322038090      0.0229673382      0.0146754719
 C      0.0018977610      0.0077284556     -0.0119514184
 H     -0.0519857396      0.0117823042     -0.0224990798
 C      0.0859149551      0.0098313201      0.0317018175
 H     -0.0123359475     -0.0096551100     -0.0431194376
 C     -0.0257181444      0.0108622099      0.0236398034
 B     -0.0182362317     -0.0085865466     -0.0129422918
 O     -0.0152924619     -0.0012901342      0.0495414837
 C      0.0186820580     -0.1013476984     -0.0863609499
 C     -0.0125781935     -0.0302638825      0.0262021621
 C      0.0538284468     -0.0057921437     -0.0042970938
 C      0.0449182351      0.0429171215     -0.0039952794
 C      0.0066024709     -0.0587138114     -0.0283318594
 C     -0.0325077485     -0.0178542100     -0.0680342061
 O      0.0033852043      0.0118432835      0.0376750341
 C     -0.0134504100     -0.0399081934     -0.0492736359
 C      0.0524153728      0.0333641173      0.0272774439
 H     -0.0131661230     -0.0048907901     -0.0156517638
 C      0.0568090349      0.0389702925      0.0152887954
 C     -0.0708371377     -0.0840353171     -0.0387180529
 C      0.0271598054      0.0091253084      0.0078420082
 H     -0.0133684552     -0.0358049197      0.0137784638
 H     -0.0175698748     -0.0038745139      0.0196971770
 H      0.0488026145     -0.0745225682     -0.0564502398
 H      0.0084821673      0.0244022556     -0.0102192392
 H      0.0415702908      0.0009205450     -0.0125498122
 H      0.0322581833     -0.0314313036      0.0921549923
 H      0.0113666091      0.0233697944      0.0086286696
 H     -0.0172242625      0.0081574642      0.0063533944
 H     -0.0291739344     -0.0004366811     -0.0173925358
 H      0.0566864867      0.0232059168      0.0039814644
 H      0.0059786027      0.0076099015     -0.0050864617
 H      0.0439584416      0.0073563456      0.0150228415
 H      0.0508981193     -0.0582233329     -0.0085151959
 H      0.0044411341     -0.0117841328     -0.0104553975
 H      0.0443734546      0.0082475480      0.0115963219
 H     -0.0201478242     -0.0037474661      0.0194531999
 H     -0.0254575651      0.0621759637     -0.0322942733
 H     -0.0568404249     -0.0016947202      0.0009590035
 H     -0.0202085275      0.0343221871      0.0033526188
 H      0.0163944673      0.0175823577     -0.0101083926
 H     -0.0102616518      0.0266296141      0.0350499067
 H      0.0093770195      0.0107619849     -0.0068435591
 H     -0.0060557841      0.0084878162      0.0020996783
 H      0.0091092524      0.0074382403      0.0314770542
 H     -0.0162630214      0.0065760181      0.0117412858
 H      0.0303497975     -0.0073342001      0.0109064156
 H      0.0071149746      0.0050166769      0.0110396064
 H     -0.0060123441      0.0052986334      0.0284810111
 H     -0.0007502225     -0.0025778962     -0.0009239151
60
# ORCA AIMD Force Step 8, t=4.00 fs, E_Pot=-1207.38246010 Hartree, Unit is Hartree/Angstrom
 C     -0.0204543290      0.0492071621      0.0595320006
 C     -0.0001517197     -0.1235441505     -0.0982457673
 O     -0.0536241637      0.0407854532      0.0181187241
 C     -0.0695566521      0.0567636187     -0.0525465509
 C      0.0361174604     -0.0294270635      0.0260656658
 C     -0.0079759091     -0.0164358324      0.0089578563
 C     -0.1055249573      0.0512248181      0.0127906569
 O     -0.0651278267      0.0345352738     -0.0083080372
 B      0.1048140544     -0.0538416028      0.0075989614
 C     -0.0201281390      0.0682716122      0.0496625317
 C     -0.0335150368      0.0263215809      0.0198328228
 C     -0.0115078139      0.0075819703     -0.0214694947
 H     -0.0421260226      0.0127208603     -0.0155778287
 C      0.0900419877      0.0051157290      0.0231270260
 H     -0.0088941863     -0.0047082282     -0.0329368091
 C     -0.0266792465      0.0139330566      0.0301388881
 B     -0.0191977223     -0.0091400402     -0.0157861845
 O     -0.0142007261      0.0000968821      0.0552528353
 C      0.0207353146     -0.1137043122     -0.0959634274
 C     -0.0158666484     -0.0132463644      0.0239221167
 C      0.0499734671      0.0015793956     -0.0083580723
 C      0.0499607850      0.0474596133     -0.0036064364
 C      0.0064272609     -0.0632239169     -0.0183883730
 C     -0.0331884067     -0.0116770680     -0.0642938775
 O      0.0021041984      0.0115490063      0.0397185590
 C     -0.0103791203     -0.0432931572     -0.0584817598
 C      0.0559072258      0.0366349176      0.0291105249
 H     -0.0139466670     -0.0052286931     -0.0169793320
 C      0.0608827278      0.0373129229      0.0242640659
 C     -0.0763405302     -0.0921128037     -0.0368219540
 C      0.0224445726      0.0006432790      0.0045099264